Methane liquid-vapour slab (united-atom)
  500
    1CH4    CH4    1   2.437   1.421  13.408  0.2041  0.0389 -0.4132
    2CH4    CH4    2   3.707   1.688  11.112 -0.3982  0.3064  0.1162
    3CH4    CH4    3   0.246   1.793  11.328  0.8427  0.2053  0.2828
    4CH4    CH4    4   1.351   2.518  10.170  0.1947  0.1506 -0.3027
    5CH4    CH4    5   1.769   3.512   5.614  0.1934 -0.2954  0.0383
    6CH4    CH4    6   2.013   0.712  10.807 -0.1518 -0.1898  0.1036
    7CH4    CH4    7   0.408   1.540  11.703  0.1821 -0.1613  0.0137
    8CH4    CH4    8   0.562   2.812   4.070 -0.0580 -0.2577  0.9115
    9CH4    CH4    9   0.826   2.234  10.834 -0.0197  0.3566  0.0688
   10CH4    CH4   10   2.629   1.751  12.547 -0.2664 -0.5148  0.0463
   11CH4    CH4   11   2.056   1.485  12.047 -0.4450 -0.2385  0.3527
   12CH4    CH4   12   3.022   2.498  10.128 -0.5313  0.0612 -0.3058
   13CH4    CH4   13   0.382   0.331   6.987  0.1533 -0.4794 -0.2263
   14CH4    CH4   14   2.297   3.510  10.973 -0.0121 -0.1863  0.4482
   15CH4    CH4   15   2.888   3.497   9.616 -0.0977 -0.2620 -0.0500
   16CH4    CH4   16   1.819   0.717   6.797 -0.0478  0.2419 -0.0798
   17CH4    CH4   17   1.956   2.061   2.805 -0.0663  0.0661 -0.0598
   18CH4    CH4   18   1.867   1.791  11.879 -0.3312  0.1510  0.0589
   19CH4    CH4   19   3.093   0.609   1.557 -0.5527 -0.1243  0.2110
   20CH4    CH4   20   1.087   0.505   5.224  0.2388  0.0163 -0.0426
   21CH4    CH4   21   2.021   3.085  10.112 -0.3343 -0.0698 -0.1417
   22CH4    CH4   22   2.472   3.329  10.186  0.0186  0.1062 -0.0380
   23CH4    CH4   23   3.187   1.765   0.106 -0.3055  0.1610 -0.0282
   24CH4    CH4   24   1.832   0.936  11.716 -0.1637  0.1151  0.0761
   25CH4    CH4   25   3.079   2.369  10.645  0.5508 -0.0510 -0.0344
   26CH4    CH4   26   2.041   2.027  11.606 -0.1830 -0.0767 -0.4442
   27CH4    CH4   27   2.785   1.995  10.945  0.1864 -0.1485 -0.2279
   28CH4    CH4   28   2.635   2.957   4.880  0.1181  0.0646 -0.1384
   29CH4    CH4   29   0.483   1.573  12.093  0.0300 -0.0588  0.4321
   30CH4    CH4   30   2.741   3.563  12.643  0.4896 -0.5077 -0.3461
   31CH4    CH4   31   3.303   1.991  11.435 -0.6381  0.0326 -0.0412
   32CH4    CH4   32   0.721   2.743  10.591 -0.3884  0.0111 -0.0544
   33CH4    CH4   33   1.147   2.550   2.033  0.1468 -0.4223  0.3292
   34CH4    CH4   34   1.910   0.581   4.461 -0.2572  0.1579 -0.0912
   35CH4    CH4   35   2.450   0.602  12.221 -0.0166 -0.4793  0.5138
   36CH4    CH4   36   1.745   2.400  10.301  0.0498  0.0384 -0.1349
   37CH4    CH4   37   0.263   1.741  10.197 -0.3254 -0.1282  0.1201
   38CH4    CH4   38   3.433   0.230  10.579  0.2130 -0.1720 -0.2717
   39CH4    CH4   39   1.906   2.542  13.034  0.0996  0.3481  0.0450
   40CH4    CH4   40   2.210   2.450  11.376 -0.2969  0.0507 -0.1643
   41CH4    CH4   41   2.749   1.887  12.148 -0.1239  0.0426 -0.0506
   42CH4    CH4   42   1.659   2.579  11.324 -0.1899 -0.3053 -0.2210
   43CH4    CH4   43   3.298   2.989  10.840  0.2209  0.2642  0.0167
   44CH4    CH4   44   2.972   1.091  11.635 -0.5973  0.4674  0.0135
   45CH4    CH4   45   2.731   3.041  11.827  0.2090  0.4925  0.5964
   46CH4    CH4   46   2.620   0.709  10.138  0.0998 -0.1285  0.1008
   47CH4    CH4   47   2.677   2.881  11.485  0.3503 -0.4056  0.4145
   48CH4    CH4   48   2.955   1.866  11.667  0.3730  0.1151 -0.0294
   49CH4    CH4   49   0.394   2.357  10.561  0.0503 -0.0062 -0.2542
   50CH4    CH4   50   2.823   3.417  11.779 -0.2332 -0.1172 -0.3211
   51CH4    CH4   51   2.739   2.288   2.923  0.0034  0.0408 -0.2942
   52CH4    CH4   52   0.808   1.951  13.506  0.4169  0.1394 -0.2004
   53CH4    CH4   53   2.075   3.158  11.722 -0.2779 -0.0901 -0.5155
   54CH4    CH4   54   2.796   2.639  12.766 -0.2121 -0.0115  0.2995
   55CH4    CH4   55   1.687   2.823  11.605  0.0590  0.1816 -0.0664
   56CH4    CH4   56   2.082   0.525  10.433 -0.0896 -0.0185  0.2017
   57CH4    CH4   57   1.769   0.799   1.808  0.2389  0.1910 -0.5457
   58CH4    CH4   58   1.491   3.513  11.657 -0.0634 -0.0647 -0.2069
   59CH4    CH4   59   3.134   1.393  11.844 -0.7155  0.5388  0.0030
   60CH4    CH4   60   3.541   1.044  11.896  0.0167  0.0434 -0.1828
   61CH4    CH4   61   1.071   3.676  11.827 -0.1783  0.2155 -0.2353
   62CH4    CH4   62   0.579   1.022  10.624 -0.3040 -0.1118 -0.0312
   63CH4    CH4   63   0.153   2.768   2.121  0.3902  0.0040 -0.4541
   64CH4    CH4   64   2.078   1.701  12.781  0.2887  0.0457 -0.2404
   65CH4    CH4   65   1.904   1.141  11.045 -0.2195 -0.0988 -0.1839
   66CH4    CH4   66   1.611   0.673   1.036 -0.0864 -0.1131 -0.2036
   67CH4    CH4   67   0.979   0.142   9.765  0.0426 -0.6948  0.1781
   68CH4    CH4   68   0.541   1.461  10.491  0.2605  0.8778  0.1370
   69CH4    CH4   69   2.069   3.560  11.358 -0.2309 -0.2792  0.0280
   70CH4    CH4   70   1.253   1.979   8.424 -0.3352 -0.2127  0.1778
   71CH4    CH4   71   1.122   1.175  11.250 -0.1322  0.1356  0.0790
   72CH4    CH4   72   2.049   2.821  11.458  0.0754 -0.3510 -0.1965
   73CH4    CH4   73   2.835   0.802   0.877  0.6071 -0.0782  0.0106
   74CH4    CH4   74   3.632   2.575  10.293  0.2972  0.0383 -0.1615
   75CH4    CH4   75   1.278   0.256  13.248  0.5426 -0.1860 -0.5794
   76CH4    CH4   76   1.641   3.639  10.368  0.2472 -0.0119  0.0420
   77CH4    CH4   77   2.083   2.147  11.984 -0.0484 -0.3003  0.3311
   78CH4    CH4   78   2.355   2.669  10.542  0.5643  0.0958  0.1849
   79CH4    CH4   79   0.144   0.923  12.215 -0.2674  0.0424 -0.0630
   80CH4    CH4   80   2.569   3.029  12.845 -0.3221 -0.3291 -0.4239
   81CH4    CH4   81   0.557   1.910  10.988  0.3391  0.0336 -0.3356
   82CH4    CH4   82   2.284   1.170  12.664 -0.2987 -0.2262 -0.1625
   83CH4    CH4   83   3.111   1.256  11.221 -0.2649 -0.0904  0.0162
   84CH4    CH4   84   3.686   1.766  10.398 -0.5540  0.1010 -0.0196
   85CH4    CH4   85   3.498   1.374   9.780  0.1037 -0.3418  0.0593
   86CH4    CH4   86   1.699   1.766  13.158  0.0978  0.0163  0.2367
   87CH4    CH4   87   1.971   3.270   7.984  0.1074  0.2523 -0.1035
   88CH4    CH4   88   3.505   0.214   4.494 -0.0597  0.5816  0.0006
   89CH4    CH4   89   1.923   3.134  10.993  0.0208 -0.3246  0.5997
   90CH4    CH4   90   3.519   1.994  12.049  0.3711  0.0796 -0.2113
   91CH4    CH4   91   3.366   2.229  10.120  0.0399  0.1432  0.2059
   92CH4    CH4   92   0.949   3.491  11.198 -0.0820  0.1914 -0.3385
   93CH4    CH4   93   3.101   0.728  11.967  0.2469  0.3514  0.1507
   94CH4    CH4   94   0.167   0.721  10.778  0.0694  0.1334 -0.0407
   95CH4    CH4   95   2.426   0.868  10.616 -0.1857  0.1012 -0.0194
   96CH4    CH4   96   1.846   0.521   0.207  0.2653  0.1754  0.0643
   97CH4    CH4   97   0.621   0.934   9.655 -0.2801 -0.0038 -0.0961
   98CH4    CH4   98   2.930   3.071   5.292 -0.3735  0.2657 -0.1683
   99CH4    CH4   99   0.680   2.499   1.603 -0.1099 -0.2346  0.0496
  100CH4    CH4  100   1.456   2.934  11.309  0.4076  0.2668  0.0975
  101CH4    CH4  101   0.718   1.496  11.242 -0.6534  0.1643 -0.5384
  102CH4    CH4  102   2.783   1.419   1.146 -0.2572  0.1817  0.3072
  103CH4    CH4  103   0.488   2.648   1.926 -0.0811  0.0681  0.5800
  104CH4    CH4  104   1.569   0.582  10.311  0.1559  0.3925  0.0338
  105CH4    CH4  105   1.389   3.567  10.837 -0.0147  0.4830 -0.1476
  106CH4    CH4  106   0.985   3.393  10.014 -0.0938  0.1665 -0.0054
  107CH4    CH4  107   1.323   1.824  12.283  0.1699  0.2530  0.4615
  108CH4    CH4  108   2.427   0.877   0.803 -0.2516  0.3608 -0.1204
  109CH4    CH4  109   2.891   2.028  12.513 -0.0548 -0.0113 -0.1651
  110CH4    CH4  110   3.389   1.593   1.173 -0.2412 -0.4531 -0.0333
  111CH4    CH4  111   3.758   1.931   2.309  0.1333 -0.4934  0.3623
  112CH4    CH4  112   0.273   3.503  12.603 -0.0353 -0.1698 -0.1665
  113CH4    CH4  113   0.507   0.998   6.894  0.2502  0.1468 -0.1237
  114CH4    CH4  114   3.241   3.611   7.511  0.3612 -0.5843  0.2454
  115CH4    CH4  115   1.355   1.466   8.238  0.1403 -0.2125 -0.2960
  116CH4    CH4  116   2.120   2.602  11.983  0.1178 -0.2456  0.3835
  117CH4    CH4  117   1.288   3.118  10.276  0.0549 -0.0589  0.3160
  118CH4    CH4  118   1.523   0.639   4.230 -0.0232  0.0381  0.7251
  119CH4    CH4  119   1.191   0.777  10.321  0.3583  0.0672 -0.2032
  120CH4    CH4  120   1.706   3.314  10.635 -0.4475 -0.0493 -0.5987
  121CH4    CH4  121   0.644   2.653  11.262 -0.6233 -0.3301  0.0530
  122CH4    CH4  122   2.732   0.628  11.677  0.1224  0.3415 -0.0246
  123CH4    CH4  123   2.641   2.399  10.367 -0.2680 -0.3085  0.2515
  124CH4    CH4  124   3.044   0.371  11.643 -0.0544  0.0149 -0.4380
  125CH4    CH4  125   0.482   0.324  11.181 -0.2927  0.2917  0.3490
  126CH4    CH4  126   2.583   1.713  11.196 -0.2785 -0.3378 -0.1109
  127CH4    CH4  127   1.613   1.934  10.564 -0.2051  0.1477  0.0409
  128CH4    CH4  128   1.608   1.422  11.598  0.1120 -0.2252 -0.2934
  129CH4    CH4  129   1.246   2.945   9.788 -0.5869 -0.4448  0.2687
  130CH4    CH4  130   3.329   3.699  11.171  0.0525 -0.2690 -0.0886
  131CH4    CH4  131   2.200   1.717  11.601  0.2823  0.2415 -0.0807
  132CH4    CH4  132   0.300   2.013   9.805  0.3136 -0.2271 -0.0611
  133CH4    CH4  133   0.830   2.668  10.124 -0.1046  0.0144  0.5071
  134CH4    CH4  134   2.046   1.895  11.263 -0.1844  0.1007 -0.0901
  135CH4    CH4  135   1.413   0.128   5.040  0.0874 -0.3059  0.3258
  136CH4    CH4  136   2.113   0.539  11.151  0.0279 -0.1863 -0.1259
  137CH4    CH4  137   2.699   1.460  12.818 -0.4860 -0.4236 -0.2537
  138CH4    CH4  138   2.333   0.623   0.521 -0.2284  0.3799  0.4763
  139CH4    CH4  139   1.751   0.429  10.632  0.0250 -0.6607 -0.3999
  140CH4    CH4  140   3.295   1.782   9.516 -0.0467 -0.1671  0.2622
  141CH4    CH4  141   2.900   3.788  10.058  0.1419  0.4638 -0.3433
  142CH4    CH4  142   0.556   0.557  10.224  0.0778 -0.3820  0.1506
  143CH4    CH4  143   2.411   3.375  12.042  0.3593  0.3613 -0.1595
  144CH4    CH4  144   1.807   3.202  11.996  0.0175 -0.2980 -0.1755
  145CH4    CH4  145   0.303   2.885  10.565 -0.3173 -0.1816  0.2528
  146CH4    CH4  146   3.178   3.559  11.896 -0.2768  0.4777 -0.3854
  147CH4    CH4  147   3.138   0.021  12.220  0.2221  0.0897  0.0716
  148CH4    CH4  148   0.710   2.275  11.226  0.2959 -0.4551  0.2081
  149CH4    CH4  149   3.436   0.232  11.420  0.0855 -0.3168 -0.5914
  150CH4    CH4  150   3.720   0.706   3.413 -0.1195 -0.0991 -0.2887
  151CH4    CH4  151   0.864   1.622  10.851  0.2673  0.4908 -0.3085
  152CH4    CH4  152   2.103   0.497   9.884  0.1087  0.1957 -0.5231
  153CH4    CH4  153   2.650   2.087  12.905 -0.0538  0.1612  0.3063
  154CH4    CH4  154   0.419   2.419  11.733  0.0930 -0.2098  0.4027
  155CH4    CH4  155   1.455   1.496  11.253 -0.0254  0.4599 -0.8397
  156CH4    CH4  156   1.355   2.227  13.226  0.2508 -0.0324 -0.3598
  157CH4    CH4  157   2.716   0.744   0.368 -0.0537  0.3583  0.0226
  158CH4    CH4  158   0.191   2.550   7.212  0.0805  0.0484 -0.2207
  159CH4    CH4  159   3.768   0.389   9.478  0.0581  0.0518  0.3057
  160CH4    CH4  160   2.197   2.236  10.464 -0.3000  0.1515  0.2220
  161CH4    CH4  161   2.653   2.422  12.474  0.0202 -0.0947  0.0445
  162CH4    CH4  162   1.822   2.310  10.895  0.1399 -0.1896  0.2514
  163CH4    CH4  163   0.362   1.273   9.558  0.1287 -0.4321 -0.3492
  164CH4    CH4  164   2.075   3.064  10.594  0.3158  0.0361  0.2487
  165CH4    CH4  165   3.331   0.322   0.729 -0.2259  0.1894 -0.2168
  166CH4    CH4  166   2.892   1.121  13.468  0.1528 -0.1293 -0.5578
  167CH4    CH4  167   1.824   2.072  12.796  0.4476 -0.1849  0.5559
  168CH4    CH4  168   1.918   1.852  10.196  0.0524 -0.0817 -0.4667
  169CH4    CH4  169   1.399   3.520   5.355  0.5473  0.0745  0.3377
  170CH4    CH4  170   2.226   3.267   8.938 -0.1651 -0.1977 -0.0388
  171CH4    CH4  171   3.254   2.724  10.424 -0.3806  0.0017 -0.2769
  172CH4    CH4  172   2.031   1.245  11.484 -0.1094 -0.5939  0.5940
  173CH4    CH4  173   3.572   3.168   1.462 -0.1255  0.0016  0.0598
  174CH4    CH4  174   1.732   1.208  10.061  0.0912 -0.1887 -0.2753
  175CH4    CH4  175   1.010   1.657   8.898 -0.2556  0.1806  0.0570
  176CH4    CH4  176   0.644   0.511  13.685  0.3854 -0.2408 -0.4208
  177CH4    CH4  177   2.797   0.862  12.897  0.5421  0.0944  0.0510
  178CH4    CH4  178   0.421   0.367  11.584 -0.2285 -0.5096  0.0237
  179CH4    CH4  179   1.926   2.794  10.388  0.0016  0.2391  0.4387
  180CH4    CH4  180   3.155   1.011  10.425 -0.2142  0.1346 -0.0002
  181CH4    CH4  181   2.526   0.662   8.301 -0.2577  0.1036 -0.5456
  182CH4    CH4  182   3.763   2.816   6.812  0.0199 -0.3750 -0.4788
  183CH4    CH4  183   0.570   0.534   7.947  0.4492 -0.2724 -0.3560
  184CH4    CH4  184   1.443   0.148  10.993  0.2278 -0.1915 -0.5574
  185CH4    CH4  185   0.242   2.936   9.811  0.1984  0.1054  0.5888
  186CH4    CH4  186   2.801   1.167  10.621 -0.1534 -0.3736 -0.0118
  187CH4    CH4  187   0.784   0.092   1.324 -0.0159  0.2886  0.0816
  188CH4    CH4  188   1.019   1.524   1.200 -0.3866 -0.2426 -0.0731
  189CH4    CH4  189   1.281   3.787   7.956  0.2735 -0.4998 -0.1603
  190CH4    CH4  190   2.890   3.205  10.869 -0.4745 -0.0639  0.4427
  191CH4    CH4  191   2.185   2.923   8.641  0.0611 -0.2454 -0.1062
  192CH4    CH4  192   2.160   3.106  12.752  0.0748 -0.3301 -0.1481
  193CH4    CH4  193   2.841   2.079  10.089 -0.1187  0.2412 -0.2033
  194CH4    CH4  194   0.555   1.206  10.965  0.1702 -0.0352  0.1029
  195CH4    CH4  195   1.803   2.156   0.774 -0.0594 -0.3316 -0.2132
  196CH4    CH4  196   1.061   0.197  11.536 -0.3854  0.3560 -0.0233
  197CH4    CH4  197   0.453   2.553   9.639 -0.2281  0.2196  0.2573
  198CH4    CH4  198   1.067   3.749   5.237 -0.2516 -0.4925 -0.0860
  199CH4    CH4  199   2.510   3.274  11.593 -0.2262  0.2919 -0.0217
  200CH4    CH4  200   1.688   3.678  13.153  0.1549 -0.1873 -0.1849
  201CH4    CH4  201   3.223   3.180  11.936 -0.0531  0.1437 -0.2114
  202CH4    CH4  202   0.174   2.391  11.318 -0.2175  0.0745 -0.0855
  203CH4    CH4  203   2.991   2.557  12.356  0.2750  0.2440  0.2740
  204CH4    CH4  204   3.208   0.077   3.043  0.1681  0.2409  0.4332
  205CH4    CH4  205   3.759   1.557   7.860  0.1595 -0.2529 -0.3973
  206CH4    CH4  206   0.948   2.053  11.411  0.0403 -0.4625  0.2333
  207CH4    CH4  207   0.588   1.025  13.272 -0.5968  0.0452  0.0009
  208CH4    CH4  208   3.596   0.716   6.039  0.0142  0.6598  0.3314
  209CH4    CH4  209   2.716   2.987   6.540 -0.4236  0.4011 -0.0709
  210CH4    CH4  210   1.418   2.345  12.163  0.2744 -0.2847 -0.0707
  211CH4    CH4  211   3.521   1.863  10.804 -0.1481 -0.3286  0.0233
  212CH4    CH4  212   3.587   1.619   7.511  0.4913  0.2481 -0.1271
  213CH4    CH4  213   2.712   3.628   2.739 -0.0018 -0.1297  0.2244
  214CH4    CH4  214   2.025   1.279  13.059  0.4255  0.3378  0.5302
  215CH4    CH4  215   2.126   2.803   9.848  0.2866 -0.3227  0.3646
  216CH4    CH4  216   2.161   2.163  12.962 -0.1765  0.1760 -0.2001
  217CH4    CH4  217   2.521   2.648  11.126 -0.2896  0.0013 -0.0387
  218CH4    CH4  218   3.472   2.194  10.577 -0.0190 -0.4409  0.1621
  219CH4    CH4  219   0.050   2.487  12.885  0.0487  0.4092  0.2606
  220CH4    CH4  220   2.569   2.653  13.138  0.3354  0.7019  0.2206
  221CH4    CH4  221   2.912   2.844  13.142 -0.3633  0.1542 -0.1217
  222CH4    CH4  222   0.809   1.968   8.264  0.2759 -0.0892  0.0596
  223CH4    CH4  223   2.836   1.714   8.122  0.4694 -0.0941 -0.1873
  224CH4    CH4  224   3.307   0.902  11.475  0.6659  0.3298  0.1382
  225CH4    CH4  225   1.609   1.621  10.298 -0.0020 -0.0330  0.1828
  226CH4    CH4  226   0.237   0.550   9.088 -0.0093  0.0560 -0.4508
  227CH4    CH4  227   2.182   0.421  12.488 -0.1232 -0.3432  0.1782
  228CH4    CH4  228   3.052   0.616  11.313 -0.4078 -0.1695 -0.0070
  229CH4    CH4  229   2.408   2.285  12.130  0.3313 -0.0249  0.1103
  230CH4    CH4  230   0.191   0.587   0.822 -0.1396 -0.3117  0.3432
  231CH4    CH4  231   3.641   0.685   9.709  0.0256  0.1006  0.4359
  232CH4    CH4  232   1.037   1.428   8.481 -0.2120 -0.0194  0.3516
  233CH4    CH4  233   1.332   0.675   2.971  0.4128  0.0867 -0.2429
  234CH4    CH4  234   3.515   2.776  11.947 -0.1010  0.4534  0.2516
  235CH4    CH4  235   2.473   2.679   3.235  0.2163 -0.1766  0.0559
  236CH4    CH4  236   0.764   1.333  10.094 -0.0211  0.5233 -0.0674
  237CH4    CH4  237   2.314   0.282   4.735 -0.1965  0.1165 -0.1005
  238CH4    CH4  238   2.839   0.945   1.265  0.0662 -0.4259 -0.0387
  239CH4    CH4  239   0.288   1.620  10.918 -0.5852  0.1875 -0.3409
  240CH4    CH4  240   3.097   0.938   5.865  0.3735 -0.1059  0.2970
  241CH4    CH4  241   0.035   1.747  13.666 -0.1474 -0.2879  0.0117
  242CH4    CH4  242   3.408   1.422  12.338 -0.2330 -0.0011  0.1048
  243CH4    CH4  243   2.415   1.611  10.704 -0.1078  0.4246  0.6023
  244CH4    CH4  244   2.407   0.919   2.768  0.1055  0.1258 -0.0082
  245CH4    CH4  245   2.865   0.434  10.903  0.4178 -0.0164 -0.5646
  246CH4    CH4  246   0.949   2.795   1.764 -0.2784  0.0976  0.2018
  247CH4    CH4  247   1.488   2.906  12.874 -0.0114 -0.1597 -0.1517
  248CH4    CH4  248   1.122   1.952  10.893 -0.0609 -0.0696 -0.1265
  249CH4    CH4  249   2.946   1.659  13.347 -0.1381 -0.3640  0.3142
  250CH4    CH4  250   3.530   0.014   5.540  0.3886  0.0266  0.3142
  251CH4    CH4  251   0.114   1.037  10.014  0.1441 -0.1550 -0.1732
  252CH4    CH4  252   3.761   1.763   4.900 -0.3350  0.1520  0.1986
  253CH4    CH4  253   3.099   3.636  10.448 -0.0509  0.1334  0.0902
  254CH4    CH4  254   2.431   0.417  10.596 -0.1493  0.5260 -0.0289
  255CH4    CH4  255   0.114   0.139   5.705  0.0050 -0.1536  0.0794
  256CH4    CH4  256   3.058   2.105  11.996  0.0644  0.0584  0.3180
  257CH4    CH4  257   2.140   3.658  10.170 -0.2391 -0.0805 -0.3020
  258CH4    CH4  258   1.411   0.487   1.335 -0.3008  0.0903  0.2359
  259CH4    CH4  259   0.762   0.635  11.968 -0.3539 -0.1699 -0.4825
  260CH4    CH4  260   2.595   3.698  11.944  0.1899 -0.3185 -0.6067
  261CH4    CH4  261   2.478   0.340  11.034 -0.3594  0.0670 -0.6057
  262CH4    CH4  262   1.615   1.465  12.869 -0.3462 -0.3950 -0.1499
  263CH4    CH4  263   1.809   0.850  10.488  0.1433 -0.0173  0.0091
  264CH4    CH4  264   0.771   3.038   9.802  0.2411  0.2489 -0.3319
  265CH4    CH4  265   3.712   1.642  12.147  0.0050  0.1389  0.1968
  266CH4    CH4  266   3.767   1.432  11.786  0.0071 -0.4603  0.5072
  267CH4    CH4  267   1.770   0.849   9.894 -0.0737  0.1664  0.1308
  268CH4    CH4  268   3.117   0.433  12.402 -0.0407 -0.1320  0.1984
  269CH4    CH4  269   0.187   3.101   4.825  0.0564  0.1574  0.2512
  270CH4    CH4  270   3.005   0.048  10.842  0.2886  0.4163  0.6275
  271CH4    CH4  271   1.147   2.550  11.753 -0.3246  0.4150 -0.0643
  272CH4    CH4  272   3.215   0.442   9.574  0.0633  0.5411  0.3091
  273CH4    CH4  273   0.022   2.116  11.123  0.0783 -0.0204 -0.1324
  274CH4    CH4  274   2.516   1.111  10.933  0.0318  0.1202  0.2021
  275CH4    CH4  275   0.087   2.083  10.665  0.0834  0.3583  0.0808
  276CH4    CH4  276   2.182   1.817  13.177  0.3518  0.1926  0.0939
  277CH4    CH4  277   0.317   3.283   2.440 -0.1717 -0.0310 -0.0323
  278CH4    CH4  278   1.051   2.964  11.159  0.2278 -0.2593  0.0018
  279CH4    CH4  279   3.102   2.812  11.743  0.0185  0.2058  0.2533
  280CH4    CH4  280   3.453   2.839  11.404 -0.2396  0.1145 -0.3617
  281CH4    CH4  281   0.137   2.233  12.345  0.2026 -0.3008 -0.1629
  282CH4    CH4  282   0.069   2.096   2.744 -0.1160 -0.0964 -0.1945
  283CH4    CH4  283   2.694   1.585  11.664 -0.1051 -0.3615  0.1082
  284CH4    CH4  284   2.702   2.810  10.650 -0.0084 -0.0967 -0.1483
  285CH4    CH4  285   2.823   1.442  10.333 -0.0423  0.0817 -0.2930
  286CH4    CH4  286   3.215   3.298  12.972  0.0289  0.4536 -0.5984
  287CH4    CH4  287   1.695   3.245  12.639 -0.0742  0.0450  0.0183
  288CH4    CH4  288   3.472   3.520  11.635  0.3332  0.0621 -0.2927
  289CH4    CH4  289   2.563   1.740   4.606  0.2842  0.3417 -0.0766
  290CH4    CH4  290   2.088   0.137   9.669  0.1696 -0.3731  0.0242
  291CH4    CH4  291   3.189   1.299   1.472  0.0820  0.1001  0.1337
  292CH4    CH4  292   1.750   1.560  10.695 -0.0634 -0.5294 -0.0732
  293CH4    CH4  293   2.229   2.661   0.516 -0.2017 -0.2715 -0.1031
  294CH4    CH4  294   0.749   2.376  10.407 -0.0118 -0.0818 -0.1165
  295CH4    CH4  295   2.759   2.547  11.870  0.0566  0.2699 -0.2627
  296CH4    CH4  296   1.086   3.796   8.491  0.1216 -0.2958 -0.0123
  297CH4    CH4  297   2.071   3.298  12.293  0.2049  0.2790 -0.2985
  298CH4    CH4  298   2.329   1.873  10.987  0.0631 -0.0342  0.1352
  299CH4    CH4  299   2.231   2.418  12.679  0.1732  0.1706 -0.4311
  300CH4    CH4  300   2.418   2.103  12.563 -0.4709  0.4757 -0.0292
  301CH4    CH4  301   1.070   2.621   9.470 -0.3359  0.2853 -0.2383
  302CH4    CH4  302   2.635   1.257  11.985 -0.4809  0.1182  0.1387
  303CH4    CH4  303   1.477   0.480  13.568 -0.1166  0.0581 -0.3062
  304CH4    CH4  304   2.941   3.033   3.478 -0.3157  0.0901  0.5016
  305CH4    CH4  305   2.812   3.344  10.007  0.0908 -0.5014 -0.0570
  306CH4    CH4  306   1.959   3.607   9.435 -0.3549  0.7337  0.3457
  307CH4    CH4  307   3.397   3.073  12.664 -0.1236 -0.1137 -0.1130
  308CH4    CH4  308   1.740   0.435  11.396  0.3350  0.2873 -0.0321
  309CH4    CH4  309   1.771   0.017  11.738  0.0362 -0.5524 -0.1106
  310CH4    CH4  310   0.759   1.979  10.567  0.0060  0.0768 -0.5362
  311CH4    CH4  311   2.252   2.973  12.047 -0.2997 -0.3793 -0.0697
  312CH4    CH4  312   0.619   2.549   8.318  0.2510  0.3630 -0.0393
  313CH4    CH4  313   0.505   0.879  11.192  0.0174 -0.6043 -0.0215
  314CH4    CH4  314   2.670   2.827  12.208 -0.1033  0.2180 -0.0326
  315CH4    CH4  315   3.642   2.781   5.770  0.0270 -0.5713 -0.0659
  316CH4    CH4  316   0.118   0.402  10.437 -0.1470  0.4703  0.2819
  317CH4    CH4  317   0.055   0.402   1.929  0.0968 -0.0288 -0.0248
  318CH4    CH4  318   0.592   0.049   8.419 -0.1478 -0.2351 -0.0424
  319CH4    CH4  319   3.173   1.696   9.985  0.0743 -0.4777  0.0475
  320CH4    CH4  320   1.518   1.005   2.838  0.1283  0.2675 -0.1355
  321CH4    CH4  321   2.589   3.480   9.408  0.1146 -0.0329  0.3647
  322CH4    CH4  322   1.672   1.389  11.999  0.1773 -0.0417 -0.3706
  323CH4    CH4  323   1.433   3.674   9.275 -0.1295  0.1704 -0.2486
  324CH4    CH4  324   0.269   0.001   5.397  0.1463  0.0198  0.0100
  325CH4    CH4  325   3.159   1.780  12.273  0.2684  0.1111  0.0328
  326CH4    CH4  326   0.162   0.216   7.785 -0.2004  0.2741  0.0161
  327CH4    CH4  327   2.293   2.437  13.344 -0.3530  0.1793 -0.0916
  328CH4    CH4  328   2.257   1.240  10.668 -0.1253  0.0087 -0.1683
  329CH4    CH4  329   2.867   2.824  10.284  0.1486 -0.3311  0.0954
  330CH4    CH4  330   2.401   0.219  12.204 -0.0884 -0.2491  0.2984
  331CH4    CH4  331   2.838   0.871  10.851 -0.3821  0.1410  0.1714
  332CH4    CH4  332   2.581   0.103   9.806  0.3669  0.0567 -0.2834
  333CH4    CH4  333   2.005   0.811   9.588  0.0414  0.2728  0.0071
  334CH4    CH4  334   2.997   1.092  12.094 -0.0425  0.0784  0.3274
  335CH4    CH4  335   2.082   3.102   9.561  0.1221 -0.6208  0.2855
  336CH4    CH4  336   2.729   3.218  10.489  0.1424  0.1699  0.0559
  337CH4    CH4  337   1.719   2.793   9.924  0.2215 -0.0737 -0.1893
  338CH4    CH4  338   2.384   1.362  12.316 -0.1935 -0.1626 -0.4323
  339CH4    CH4  339   1.755   0.075   4.676  0.1517 -0.4209 -0.1616
  340CH4    CH4  340   2.236   3.414   9.733  0.1079  0.0853  0.2258
  341CH4    CH4  341   2.947   1.740  10.601  0.1392  0.4322  0.2697
  342CH4    CH4  342   2.268   3.075  11.217 -0.3719 -0.1458 -0.3415
  343CH4    CH4  343   0.637   0.237   2.186 -0.2001 -0.3806 -0.1796
  344CH4    CH4  344   1.920   2.883   0.253 -0.0439 -0.3449  0.0714
  345CH4    CH4  345   1.641   2.357   8.234  0.3047 -0.0709 -0.2365
  346CH4    CH4  346   2.644   1.749   4.127 -0.0505  0.3722 -0.0519
  347CH4    CH4  347   1.082   0.343  10.980 -0.2116  0.7110  0.0927
  348CH4    CH4  348   2.087   3.767   4.991  0.3364  0.1190 -0.2136
  349CH4    CH4  349   2.686   1.085  10.192 -0.0420 -0.0651  0.0962
  350CH4    CH4  350   1.602   1.764   5.255 -0.0548  0.1339  0.0361
  351CH4    CH4  351   0.584   1.690   5.779  0.2935  0.4501 -0.0033
  352CH4    CH4  352   2.808   0.206   7.411 -0.0245  0.0333  0.1636
  353CH4    CH4  353   3.371   3.167   5.247  0.0913  0.2996  0.2712
  354CH4    CH4  354   1.311   1.649  11.734 -0.1899  0.1067 -0.5308
  355CH4    CH4  355   3.218   1.632  12.617 -0.5408  0.0650 -0.1118
  356CH4    CH4  356   2.678   0.846  12.094 -0.0271  0.0392  0.4975
  357CH4    CH4  357   2.043   2.128  12.368 -0.5358 -0.2136 -0.1789
  358CH4    CH4  358   1.306   0.989   1.912 -0.2914  0.1275  0.0715
  359CH4    CH4  359   2.017   0.488   2.002  0.2654  0.0580 -0.0781
  360CH4    CH4  360   1.530   2.027  11.921  0.0133  0.1299 -0.0804
  361CH4    CH4  361   1.535   2.805  10.323 -0.2314  0.1509  0.1592
  362CH4    CH4  362   2.998   0.779  10.056  0.0454  0.0060  0.2525
  363CH4    CH4  363   2.259   3.110   4.645 -0.1323 -0.3637 -0.3008
  364CH4    CH4  364   3.777   1.094   8.087 -0.1505  0.4465  0.0790
  365CH4    CH4  365   2.076   2.799  12.363 -0.2126 -0.3653  0.4765
  366CH4    CH4  366   1.915   0.333   2.377  0.0775  0.3428  0.2938
  367CH4    CH4  367   0.737   3.551  12.077 -0.3372  0.0129  0.3463
  368CH4    CH4  368   0.629   3.404   8.905 -0.2409  0.2308 -0.2653
  369CH4    CH4  369   2.373   0.939  12.361 -0.7330 -0.5913 -0.0762
  370CH4    CH4  370   0.697   1.767  10.191  0.2581  0.0827  0.1589
  371CH4    CH4  371   2.522   1.909  10.493  0.0302 -0.3981 -0.0813
  372CH4    CH4  372   3.767   2.164  11.601  0.2640 -0.0265  0.0176
  373CH4    CH4  373   1.421   2.219   2.558  0.3968 -0.0079  0.0364
  374CH4    CH4  374   2.141   1.142  11.992 -0.1382 -0.1400  0.0617
  375CH4    CH4  375   2.304   2.759   9.426  0.1119 -0.4301 -0.0793
  376CH4    CH4  376   1.040   3.595   3.687  0.2454 -0.0989  0.0686
  377CH4    CH4  377   2.963   0.276  10.504 -0.2615 -0.1054 -0.0116
  378CH4    CH4  378   3.009   3.431   7.925 -0.0159 -0.2665  0.3764
  379CH4    CH4  379   0.188   0.319   2.613  0.5127 -0.2775  0.1566
  380CH4    CH4  380   3.060   3.689   5.740 -0.1809  0.0637  0.2913
  381CH4    CH4  381   3.755   1.760   9.796 -0.2886  0.0063 -0.0780
  382CH4    CH4  382   1.822   2.450  12.229  0.1301  0.2835 -0.2153
  383CH4    CH4  383   2.612   2.493   9.743 -0.2766 -0.0157  0.4743
  384CH4    CH4  384   2.137   3.590  11.743  0.0301 -0.3756 -0.1174
  385CH4    CH4  385   1.329   1.021  11.734  0.3260 -0.0848 -0.0051
  386CH4    CH4  386   2.971   1.608  11.329  0.1048  0.1963 -0.1563
  387CH4    CH4  387   1.521   1.977  13.593 -0.3402 -0.0554  0.4305
  388CH4    CH4  388   1.664   0.769  11.014  0.6785  0.0095 -0.1913
  389CH4    CH4  389   2.188   1.691  12.432  0.2409  0.0002 -0.0133
  390CH4    CH4  390   2.447   1.647  12.021  0.4233 -0.2872  0.0486
  391CH4    CH4  391   0.626   2.096   0.929  0.3366 -0.3308 -0.0759
  392CH4    CH4  392   1.704   3.674   4.319 -0.7649 -0.1340 -0.0474
  393CH4    CH4  393   1.581   1.614   5.644 -0.1324 -0.0068 -0.2913
  394CH4    CH4  394   1.511   3.240   9.010  0.5581 -0.2369  0.2477
  395CH4    CH4  395   3.630   0.672   1.743  0.1092 -0.0939  0.1687
  396CH4    CH4  396   3.151   2.964  10.099 -0.5680 -0.6360 -0.2236
  397CH4    CH4  397   1.302   1.590   4.762  0.3829  0.4424 -0.0117
  398CH4    CH4  398   1.134   0.295  13.725  0.0431  0.1285 -0.4357
  399CH4    CH4  399   0.062   2.427   6.825  0.0494  0.4769 -0.3210
  400CH4    CH4  400   1.151   0.722  11.850  0.1565  0.0521  0.0116
  401CH4    CH4  401   1.771   2.837   2.809  0.3520  0.2545  0.1641
  402CH4    CH4  402   0.513   2.135   9.450 -0.0666  0.1397 -0.3183
  403CH4    CH4  403   1.631   1.223  10.714 -0.2999  0.1016  0.1394
  404CH4    CH4  404   3.508   0.185   5.041  0.3494 -0.0418  0.3094
  405CH4    CH4  405   2.145   0.313   3.977 -0.3179  0.0367  0.3031
  406CH4    CH4  406   3.404   1.389  11.499  0.1311 -0.0250  0.0482
  407CH4    CH4  407   1.956   0.183  10.288 -0.1568  0.0459 -0.1624
  408CH4    CH4  408   2.489   3.137  10.877  0.4319  0.0111  0.2039
  409CH4    CH4  409   1.776   0.800   5.207 -0.6746 -0.5552  0.6873
  410CH4    CH4  410   1.672   3.247  10.141  0.2538 -0.1934 -0.0971
  411CH4    CH4  411   0.058   0.726  11.858 -0.0184  0.3054 -0.1066
  412CH4    CH4  412   1.272   0.183  10.150  0.1411 -0.4491  0.0135
  413CH4    CH4  413   3.578   2.392  11.050 -0.3368  0.3623  0.0575
  414CH4    CH4  414   1.742   3.598   9.833  0.2221 -0.0800 -0.3905
  415CH4    CH4  415   1.507   2.124  12.543  0.2165 -0.4181  0.0160
  416CH4    CH4  416   0.318   0.908   7.865 -0.1065 -0.5759  0.1483
  417CH4    CH4  417   2.866   3.488  12.194 -0.0038 -0.0249 -0.4290
  418CH4    CH4  418   2.423   2.735  11.744  0.4430 -0.3979  0.2791
  419CH4    CH4  419   2.489   1.694   7.638 -0.2362 -0.0350 -0.0033
  420CH4    CH4  420   2.698   3.171  11.216  0.5481  0.5176 -0.3371
  421CH4    CH4  421   2.811   1.468  12.296 -0.0261  0.1082 -0.1269
  422CH4    CH4  422   2.540   0.203  11.671  0.0899  0.1000 -0.0593
  423CH4    CH4  423   0.203   1.330  12.110  0.3115  0.4401  0.1974
  424CH4    CH4  424   2.362   1.343  11.739  0.0115  0.2885  0.2402
  425CH4    CH4  425   1.348   3.608  10.084  0.4379  0.0741 -0.0522
  426CH4    CH4  426   0.006   3.194   5.401  0.6267  0.2115 -0.1489
  427CH4    CH4  427   2.271   3.654  12.350  0.0686  0.1265 -0.2095
  428CH4    CH4  428   0.005   1.799  11.656 -0.1378  0.2314 -0.2166
  429CH4    CH4  429   2.081   2.962  13.769  0.2112 -0.2526  0.5077
  430CH4    CH4  430   1.640   0.883  12.102  0.0859  0.2456 -0.3715
  431CH4    CH4  431   1.808   2.348  11.764  0.1138 -0.2197 -0.0083
  432CH4    CH4  432   3.296   3.455  12.359  0.3270  0.2375  0.2278
  433CH4    CH4  433   1.798   0.769   1.409 -0.2630  0.1953  0.0083
  434CH4    CH4  434   1.573   0.275   4.195 -0.1165 -0.0431  0.5943
  435CH4    CH4  435   2.440   3.168  12.433  0.1376  0.2042  0.0813
  436CH4    CH4  436   2.445   0.905  11.824  0.4886 -0.2320 -0.1704
  437CH4    CH4  437   2.504   3.072   9.763  0.2159  0.2252  0.5466
  438CH4    CH4  438   1.958   1.461   0.734  0.0681 -0.1092  0.2879
  439CH4    CH4  439   2.370   0.402  10.154  0.0213  0.2623 -0.2427
  440CH4    CH4  440   0.793   1.640  11.615 -0.2003  0.0708 -0.2826
  441CH4    CH4  441   0.695   1.246   9.189  0.2371 -0.0021  0.3024
  442CH4    CH4  442   3.517   0.641   1.341  0.1006 -0.0104 -0.0429
  443CH4    CH4  443   0.988   3.352  12.387  0.4024  0.0861  0.1475
  444CH4    CH4  444   2.441   2.326  10.773 -0.2383 -0.2753  0.2159
  445CH4    CH4  445   3.565   3.352  12.043 -0.1932 -0.0516  0.0995
  446CH4    CH4  446   2.469   0.488   2.444 -0.2740 -0.2340  0.3320
  447CH4    CH4  447   3.451   0.188   1.409 -0.0992 -0.0465  0.4644
  448CH4    CH4  448   2.250   3.441  10.534  0.2453  0.0175 -0.1780
  449CH4    CH4  449   2.565   0.278  12.567 -0.2954  0.1600  0.3771
  450CH4    CH4  450   1.124   2.968  13.949  0.0513 -0.0928 -0.0538
  451CH4    CH4  451   1.631   0.172  10.073  0.3026  0.2468 -0.2003
  452CH4    CH4  452   2.689   1.084  12.417  0.0159  0.1635 -0.3174
  453CH4    CH4  453   0.076   0.112  11.569 -0.0178 -0.1426 -0.2136
  454CH4    CH4  454   3.212   0.870   7.557  0.2484 -0.4391  0.0197
  455CH4    CH4  455   1.752   1.764  12.350 -0.0174 -0.6003  0.1178
  456CH4    CH4  456   3.465   1.689  11.748 -0.5341 -0.3655 -0.0965
  457CH4    CH4  457   3.355   2.271  11.769 -0.4523 -0.2494  0.1127
  458CH4    CH4  458   0.554   1.446  12.731  0.0818 -0.5842 -0.0842
  459CH4    CH4  459   2.175   0.912  10.068  0.0597 -0.0854  0.0352
  460CH4    CH4  460   3.299   1.642  10.386  0.1415  0.2953 -0.1525
  461CH4    CH4  461   2.702   0.199  11.326  0.2499 -0.1785 -0.1405
  462CH4    CH4  462   0.637   2.134  13.234 -0.0705 -0.1313  0.3449
  463CH4    CH4  463   2.233   1.408  11.103 -0.0694  0.4646 -0.0478
  464CH4    CH4  464   2.489   2.025  11.743  0.1057 -0.2280 -0.4368
  465CH4    CH4  465   2.607   2.153  13.365  0.4187 -0.0019  0.3668
  466CH4    CH4  466   0.949   2.373   9.969  0.2279  0.0595 -0.2297
  467CH4    CH4  467   3.716   3.391   6.447 -0.0651  0.1182  0.0293
  468CH4    CH4  468   0.796   3.303   6.625  0.3757 -0.0338  0.6068
  469CH4    CH4  469   2.666   3.196  13.186  0.3310  0.0266  0.0271
  470CH4    CH4  470   0.091   2.287  10.294 -0.0906  0.1538  0.2343
  471CH4    CH4  471   2.742   0.852  11.259  0.0351  0.2637  0.1307
  472CH4    CH4  472   2.758   0.680  12.432 -0.2538  0.4244  0.2177
  473CH4    CH4  473   2.444   2.915  10.179 -0.3417  0.2834 -0.4724
  474CH4    CH4  474   0.780   1.987   9.785 -0.1931  0.3452 -0.2197
  475CH4    CH4  475   1.116   0.082   9.161  0.2608  0.6200 -0.0827
  476CH4    CH4  476   1.301   0.653  11.527 -0.7129  0.1945  0.3983
  477CH4    CH4  477   0.239   3.461  13.394  0.1569 -0.0279  0.5440
  478CH4    CH4  478   2.608   3.756  10.960  0.0771 -0.5796  0.0623
  479CH4    CH4  479   3.548   2.773  12.328  0.3917  0.1488  0.2735
  480CH4    CH4  480   1.219   0.741   0.701  0.2122  0.0273  0.2242
  481CH4    CH4  481   2.411   0.501  11.500 -0.3115  0.1048  0.3178
  482CH4    CH4  482   0.791   0.853   3.348  0.0060  0.1691 -0.1666
  483CH4    CH4  483   0.953   2.659   1.328  0.2929 -0.2008  0.1274
  484CH4    CH4  484   2.942   0.385   4.274  0.0737  0.4035 -0.0137
  485CH4    CH4  485   0.491   2.694   0.724  0.0008 -0.0287  0.4690
  486CH4    CH4  486   1.639   1.854   6.265 -0.3552 -0.1343  0.0065
  487CH4    CH4  487   1.956   2.230  13.340 -0.1801  0.1894  0.0000
  488CH4    CH4  488   0.025   2.865  10.864 -0.0220  0.4963 -0.2683
  489CH4    CH4  489   2.605   3.648  10.400 -0.0262  0.6014  0.1959
  490CH4    CH4  490   0.862   2.717   4.776 -0.1110  0.3526  0.2453
  491CH4    CH4  491   0.682   1.111  11.518  0.2254  0.0234 -0.7332
  492CH4    CH4  492   1.695   1.908  11.506  0.3995  0.4579 -0.0574
  493CH4    CH4  493   0.087   2.503  10.695 -0.3610 -0.2937 -0.1707
  494CH4    CH4  494   2.309   2.563  10.051 -0.3585 -0.1222  0.1642
  495CH4    CH4  495   2.187   0.706  11.987  0.1402  0.4133 -0.2015
  496CH4    CH4  496   2.962   2.323   1.531  0.2934 -0.0409  0.2605
  497CH4    CH4  497   0.171   3.037   7.140  0.2675 -0.0759 -0.4187
  498CH4    CH4  498   1.267   3.033   9.355  0.0229  0.2272  0.0676
  499CH4    CH4  499   0.887   0.639   9.492 -0.3405  0.1243 -0.2046
  500CH4    CH4  500   0.547   2.879   1.435 -0.1210  0.1669 -0.4261
   3.80000   3.80000  14.00000
