Methane liquid-vapour slab (united-atom)
  500
    1CH4    CH4    1   0.715   2.559   6.674  0.0551  0.0628 -0.2170
    2CH4    CH4    2   0.730   3.142   8.781 -0.1631 -0.2516  0.0269
    3CH4    CH4    3   0.179   2.998   8.201  0.0863  0.3576 -0.0469
    4CH4    CH4    4   3.313   1.929   7.304  0.3636  0.3148  0.4664
    5CH4    CH4    5   1.436   3.067   7.391 -0.1638 -0.0174 -0.1334
    6CH4    CH4    6   2.197   1.146   7.870 -0.1196 -0.0405  0.0268
    7CH4    CH4    7   2.169   3.506   6.847 -0.0699  0.1375 -0.0503
    8CH4    CH4    8   0.056   1.505   7.751 -0.1865 -0.1164 -0.3737
    9CH4    CH4    9   0.586   3.179   7.160 -0.3598 -0.4049  0.3721
   10CH4    CH4   10   1.220   0.069  13.051  0.1088  0.1429  0.1155
   11CH4    CH4   11   0.891   0.296   7.698  0.0899 -0.4193  0.0276
   12CH4    CH4   12   2.871   3.127   7.082  0.0207  0.1422  0.0168
   13CH4    CH4   13   0.910   3.154   7.981 -0.2124 -0.4856  0.3821
   14CH4    CH4   14   3.752   1.967   7.676  0.0711 -0.0757  0.0379
   15CH4    CH4   15   2.385   2.202   6.416 -0.1827  0.0996  0.1372
   16CH4    CH4   16   0.113   2.690   8.457  0.0505 -0.0606  0.2539
   17CH4    CH4   17   2.026   2.017   7.462 -0.1610 -0.1577 -0.1556
   18CH4    CH4   18   1.713   0.342   8.753  0.1676  0.1796 -0.0029
   19CH4    CH4   19   1.150   0.619   7.647 -0.0730  0.0839  0.0461
   20CH4    CH4   20   1.532   1.329   7.706 -0.1263  0.2234  0.0189
   21CH4    CH4   21   1.519   1.035   6.334 -0.2309  0.2393  0.1490
   22CH4    CH4   22   2.855   0.575   7.150 -0.5905  0.3165  0.2083
   23CH4    CH4   23   3.444   0.537   8.501 -0.3826 -0.0950  0.2445
   24CH4    CH4   24   1.024   0.411   7.330 -0.0189  0.1008 -0.1502
   25CH4    CH4   25   1.171   2.810   7.869 -0.1905 -0.0977 -0.1797
   26CH4    CH4   26   1.004   1.640   7.328  0.2419 -0.0637 -0.1102
   27CH4    CH4   27   1.939   2.961   8.647  0.1766 -0.1259 -0.4638
   28CH4    CH4   28   0.479   3.434   8.778  0.0837 -0.1841  0.1833
   29CH4    CH4   29   2.451   2.062   6.768  0.1220 -0.3330 -0.0483
   30CH4    CH4   30   2.063   0.631   7.583 -0.1298 -0.3208 -0.3729
   31CH4    CH4   31   0.708   0.453   8.847 -0.0335  0.0845  0.1102
   32CH4    CH4   32   3.255   2.305   7.038 -0.3998 -0.1161  0.2600
   33CH4    CH4   33   2.677   2.526   7.619  0.3854  0.2668 -0.1222
   34CH4    CH4   34   3.590   1.055   7.791  0.2807 -0.0045 -0.0149
   35CH4    CH4   35   2.131   1.400   6.843 -0.3951  0.2965  0.1213
   36CH4    CH4   36   2.479   2.087   7.906  0.0704  0.0928 -0.0322
   37CH4    CH4   37   3.551   2.219   7.419  0.0612  0.1986  0.0668
   38CH4    CH4   38   3.056   2.485   8.543 -0.1073 -0.1864  0.2950
   39CH4    CH4   39   0.100   1.233   7.028 -0.0463 -0.3334  0.2677
   40CH4    CH4   40   0.849   1.211   7.712  0.3701 -0.0745  0.0883
   41CH4    CH4   41   0.781   3.529   8.154 -0.1171 -0.1009  0.2244
   42CH4    CH4   42   2.280   3.204   8.340 -0.2044 -0.1317 -0.2360
   43CH4    CH4   43   2.699   1.044   8.400 -0.1593  0.0339 -0.0006
   44CH4    CH4   44   0.119   1.351   8.549  0.1463 -0.5281 -0.0826
   45CH4    CH4   45   3.514   2.700   8.259  0.0232  0.0426 -0.0870
   46CH4    CH4   46   2.545   3.503   6.596  0.0688 -0.1386 -0.0064
   47CH4    CH4   47   2.436   1.317   8.571  0.0526 -0.0136  0.1139
   48CH4    CH4   48   1.143   2.080   8.447 -0.0569 -0.0725 -0.1532
   49CH4    CH4   49   2.105   3.682   7.789 -0.1114  0.3592 -0.3820
   50CH4    CH4   50   1.152   0.747   7.136  0.2672  0.3160 -0.3167
   51CH4    CH4   51   3.529   1.393   6.157 -0.0983  0.2775 -0.0634
   52CH4    CH4   52   0.987   0.906   7.481 -0.3302 -0.1492  0.0199
   53CH4    CH4   53   2.817   2.312   8.236 -0.1843  0.3160  0.1083
   54CH4    CH4   54   2.972   0.657   6.722  0.0885 -0.5293  0.1173
   55CH4    CH4   55   1.332   3.632   7.758  0.1342  0.0975  0.2287
   56CH4    CH4   56   3.009   2.654   8.187 -0.1242  0.3308 -0.2857
   57CH4    CH4   57   0.361   0.395   6.612  0.0342  0.0196  0.1842
   58CH4    CH4   58   3.334   3.420   6.984  0.0924  0.0298 -0.2435
   59CH4    CH4   59   0.387   3.782   8.087 -0.0664 -0.0896  0.2297
   60CH4    CH4   60   0.751   0.389   6.988  0.1363  0.5799  0.1881
   61CH4    CH4   61   3.064   1.316   6.410  0.2378 -0.0204 -0.0643
   62CH4    CH4   62   0.031   3.649   7.645 -0.0076 -0.3462  0.0075
   63CH4    CH4   63   1.544   0.806   8.545 -0.0188 -0.1256  0.0895
   64CH4    CH4   64   2.024   0.037   6.645  0.0796  0.3548  0.0700
   65CH4    CH4   65   0.428   1.368   6.823 -0.0807 -0.1852  0.0723
   66CH4    CH4   66   2.962   3.748   8.273  0.0686 -0.1843  0.0164
   67CH4    CH4   67   2.324   1.400  13.468 -0.2611 -0.2552 -0.2297
   68CH4    CH4   68   3.400   0.636   7.737  0.1631 -0.0565 -0.1404
   69CH4    CH4   69   0.518   1.005   8.574 -0.3020  0.1128 -0.1494
   70CH4    CH4   70   3.120   0.406   7.926  0.2373  0.0229  0.1873
   71CH4    CH4   71   3.165   1.482   7.852 -0.1234 -0.0969 -0.1605
   72CH4    CH4   72   1.039   1.790   6.898  0.3329 -0.1045  0.0272
   73CH4    CH4   73   1.151   1.324   7.413  0.0860 -0.1328  0.1205
   74CH4    CH4   74   1.902   0.639   7.991 -0.3572  0.2639  0.3335
   75CH4    CH4   75   3.671   3.526   7.170 -0.0659  0.3355  0.1064
   76CH4    CH4   76   3.230   3.122   7.532  0.0572 -0.2695  0.1286
   77CH4    CH4   77   0.266   3.561   7.303  0.2344 -0.0970  0.4362
   78CH4    CH4   78   2.964   3.571   7.712 -0.0594  0.1793  0.1114
   79CH4    CH4   79   0.300   1.974   7.960  0.3000  0.2269 -0.2004
   80CH4    CH4   80   2.090   2.227   6.730  0.2460 -0.0238  0.3173
   81CH4    CH4   81   0.339   2.486   7.387  0.1509 -0.0546 -0.1903
   82CH4    CH4   82   1.069   1.368   6.985  0.0272  0.0573 -0.2160
   83CH4    CH4   83   1.980   3.340   0.332  0.0781  0.3954  0.2746
   84CH4    CH4   84   3.096   1.353   8.565  0.1212  0.0800  0.0175
   85CH4    CH4   85   0.056   0.821   7.036  0.5511  0.1412  0.2265
   86CH4    CH4   86   0.834   0.020   6.862 -0.1864 -0.3022  0.3991
   87CH4    CH4   87   3.186   1.002   7.762 -0.3182  0.3418  0.2085
   88CH4    CH4   88   0.980   0.887   8.694 -0.0044 -0.0161  0.1266
   89CH4    CH4   89   0.947   3.127   7.574 -0.0990  0.0902 -0.0772
   90CH4    CH4   90   0.463   2.373   8.661  0.3620 -0.0479  0.1336
   91CH4    CH4   91   0.666   1.684   7.080 -0.1504 -0.1782  0.3060
   92CH4    CH4   92   2.677   0.865   7.333 -0.1764 -0.1731  0.1924
   93CH4    CH4   93   2.501   1.678   7.992  0.0342  0.1880  0.0048
   94CH4    CH4   94   3.645   2.081   6.513 -0.1553 -0.1006 -0.4480
   95CH4    CH4   95   2.765   2.137   8.582 -0.3799  0.7745  0.1907
   96CH4    CH4   96   2.495   2.955   7.652  0.2490  0.2529  0.1207
   97CH4    CH4   97   1.249   0.523   8.807  0.0903 -0.1306 -0.3377
   98CH4    CH4   98   2.065   2.400   8.842  0.0807  0.1917 -0.0549
   99CH4    CH4   99   2.152   1.303   6.371  0.3082  0.0060  0.2567
  100CH4    CH4  100   2.328   3.562   8.101 -0.2565  0.3114 -0.3180
  101CH4    CH4  101   0.125   1.689   8.325  0.1761 -0.2743  0.0461
  102CH4    CH4  102   1.675   2.853   8.320 -0.3262  0.3447 -0.0296
  103CH4    CH4  103   1.346   3.694   9.178 -0.4988 -0.0013 -0.3480
  104CH4    CH4  104   1.833   2.524   6.793  0.1314  0.0163  0.0801
  105CH4    CH4  105   0.342   3.766   8.627 -0.2138 -0.2048  0.0253
  106CH4    CH4  106   1.034   1.589   7.736  0.1594  0.0834 -0.1519
  107CH4    CH4  107   3.530   0.060   6.407  0.2712 -0.5123  0.1195
  108CH4    CH4  108   1.789   0.454   7.366  0.0966 -0.0588  0.2968
  109CH4    CH4  109   3.657   3.324   6.844  0.1325  0.0091  0.1405
  110CH4    CH4  110   0.862   3.692   7.811 -0.1722  0.5610  0.0875
  111CH4    CH4  111   2.786   1.882   8.130  0.1386  0.3465  0.0370
  112CH4    CH4  112   3.434   1.795   7.754 -0.4483  0.4165  0.0352
  113CH4    CH4  113   1.760   1.702   7.362  0.0693  0.0062  0.1076
  114CH4    CH4  114   3.120   1.631   8.278 -0.1402  0.1022 -0.2021
  115CH4    CH4  115   2.362   0.198   8.674 -0.3522  0.4481  0.0028
  116CH4    CH4  116   2.390   2.175   7.501  0.2140  0.1802  0.1187
  117CH4    CH4  117   0.318   3.682  11.149 -0.2308  0.1840  0.2863
  118CH4    CH4  118   1.002   2.681   7.500  0.0981 -0.3180  0.2634
  119CH4    CH4  119   1.828   3.142   7.544  0.1342  0.3794  0.3329
  120CH4    CH4  120   2.807   3.326   8.208  0.0139 -0.2847  0.5964
  121CH4    CH4  121   2.245   0.492   7.971 -0.4615  0.1062 -0.0485
  122CH4    CH4  122   2.777   1.422   7.831  0.1890 -0.1444 -0.2579
  123CH4    CH4  123   0.844   2.387   7.104  0.2424  0.2688  0.2608
  124CH4    CH4  124   2.069   1.922   7.835  0.7030 -0.2515 -0.0303
  125CH4    CH4  125   0.285   0.671   7.261  0.0570  0.1324  0.0781
  126CH4    CH4  126   3.703   3.759   6.845 -0.1167  0.3193  0.1568
  127CH4    CH4  127   0.688   2.001   7.559 -0.2546  0.3496  0.3179
  128CH4    CH4  128   2.424   0.109   7.859  0.2301 -0.0294 -0.2755
  129CH4    CH4  129   3.187   3.175   8.226  0.1182  0.4409  0.1165
  130CH4    CH4  130   0.664   0.129   7.382  0.1316  0.2205 -0.1701
  131CH4    CH4  131   0.238   1.018   7.950 -0.0791 -0.0614  0.2010
  132CH4    CH4  132   2.809   0.139   7.233 -0.1246 -0.1749 -0.2288
  133CH4    CH4  133   2.156   1.833   8.220 -0.2522  0.2779  0.0552
  134CH4    CH4  134   1.482   2.693   7.236 -0.0801 -0.0057 -0.0684
  135CH4    CH4  135   0.603   2.769   7.079 -0.0488 -0.2157  0.0576
  136CH4    CH4  136   0.661   0.938   7.852  0.1682 -0.1049  0.1260
  137CH4    CH4  137   3.062   0.923   7.181  0.1860 -0.4763 -0.1234
  138CH4    CH4  138   3.005   2.804   8.774 -0.1902 -0.4434  0.1603
  139CH4    CH4  139   0.810   2.102   7.955  0.1141  0.6463 -0.0521
  140CH4    CH4  140   2.905   1.298   7.090 -0.3102 -0.0226 -0.5406
  141CH4    CH4  141   0.602   1.745   6.690 -0.2554 -0.0356 -0.0035
  142CH4    CH4  142   3.507   1.728   6.904  0.0835 -0.1653 -0.0431
  143CH4    CH4  143   0.735   2.050   6.887 -0.0270 -0.4700  0.3883
  144CH4    CH4  144   1.321   3.115   8.187 -0.3656 -0.0077 -0.4774
  145CH4    CH4  145   0.702   0.612   7.538  0.3160 -0.1241 -0.1801
  146CH4    CH4  146   3.291   1.231   8.238 -0.2729 -0.0704 -0.1793
  147CH4    CH4  147   1.783   3.646   6.986  0.1478 -0.2693 -0.2196
  148CH4    CH4  148   0.460   1.625   8.575  0.1013  0.4927 -0.6651
  149CH4    CH4  149   1.766   3.785   8.525 -0.4283 -0.0631  0.1498
  150CH4    CH4  150   1.424   1.823   6.747 -0.1558  0.1878  0.0339
  151CH4    CH4  151   2.679   0.975   6.969  0.0349  0.3158 -0.1359
  152CH4    CH4  152   2.106   1.567   8.530  0.3906 -0.4417  0.1735
  153CH4    CH4  153   3.389   0.758   6.880  0.0160  0.2661 -0.1389
  154CH4    CH4  154   0.772   1.076   6.810 -0.5470  0.1486 -0.1547
  155CH4    CH4  155   0.131   2.200   6.864 -0.1973 -0.1423 -0.1342
  156CH4    CH4  156   0.042   1.369   8.125 -0.4386  0.3759 -0.1133
  157CH4    CH4  157   0.391   0.615   7.836  0.3660  0.2803  0.4388
  158CH4    CH4  158   2.778   1.297   7.455  0.1952  0.2736 -0.1126
  159CH4    CH4  159   2.006   2.899   7.773  0.0577  0.3579 -0.3397
  160CH4    CH4  160   0.912   0.620   8.396 -0.3735 -0.2504 -0.2901
  161CH4    CH4  161   2.157   1.509   8.016  0.0838  0.4636  0.4823
  162CH4    CH4  162   0.997   0.288   8.624 -0.2203  0.0181  0.0853
  163CH4    CH4  163   1.415   3.058   6.798 -0.2766 -0.1646  0.1738
  164CH4    CH4  164   1.521   3.470   8.096  0.0923  0.4499  0.1430
  165CH4    CH4  165   2.177   2.511   8.385 -0.0615 -0.2903 -0.1007
  166CH4    CH4  166   2.897   1.497   4.951 -0.4255 -0.0391  0.3229
  167CH4    CH4  167   3.670   2.498   7.056  0.3854 -0.0350 -0.2353
  168CH4    CH4  168   2.672   1.046   7.784  0.3004 -0.2487  0.0583
  169CH4    CH4  169   0.779   0.511   7.998 -0.0434  0.2113 -0.4658
  170CH4    CH4  170   1.211   3.442  13.116 -0.2806  0.0187 -0.2129
  171CH4    CH4  171   1.833   0.018   8.934 -0.0429  0.0620 -0.3536
  172CH4    CH4  172   3.646   2.616   7.451 -0.3068  0.0364 -0.0265
  173CH4    CH4  173   2.266   2.543   7.312  0.0831 -0.1225 -0.3661
  174CH4    CH4  174   0.484   1.091   7.514 -0.2472  0.1518 -0.1128
  175CH4    CH4  175   1.084   1.953   7.559 -0.2558 -0.2253  0.0497
  176CH4    CH4  176   1.315   0.524   8.386 -0.0932  0.6984 -0.5117
  177CH4    CH4  177   2.454   2.625   8.892 -0.0776  0.0117 -0.3351
  178CH4    CH4  178   3.455   3.192   7.890  0.2797  0.3567 -0.1954
  179CH4    CH4  179   1.205   1.869   7.922 -0.2724 -0.0389  0.0080
  180CH4    CH4  180   1.664   0.068   7.573  0.1865  0.1906  0.3194
  181CH4    CH4  181   2.810   0.501   6.258  0.0719 -0.3887  0.4133
  182CH4    CH4  182   0.819   0.982   8.242  0.0148 -0.0327  0.3045
  183CH4    CH4  183   0.691   0.116   8.260  0.1546 -0.3919 -0.0787
  184CH4    CH4  184   2.387   1.678   6.818  0.0861  0.1423 -0.0657
  185CH4    CH4  185   3.236   2.865   7.826 -0.1038  0.1162 -0.2100
  186CH4    CH4  186   0.472   3.613   7.720 -0.1684  0.1595  0.2073
  187CH4    CH4  187   0.533   2.825   8.138  0.2055  0.1307 -0.6594
  188CH4    CH4  188   1.309   0.267   6.882 -0.3324 -0.4579 -0.1105
  189CH4    CH4  189   1.164   2.005   6.419  0.0084  0.1911 -0.0318
  190CH4    CH4  190   0.050   0.568   7.567 -0.1160  0.0660 -0.0371
  191CH4    CH4  191   2.967   2.593   6.621  0.2811  0.0133  0.0994
  192CH4    CH4  192   3.313   1.280   7.534 -0.2122 -0.5974  0.1242
  193CH4    CH4  193   2.139   2.297   7.949 -0.1948  0.0397  0.2095
  194CH4    CH4  194   2.099   1.011   6.665 -0.0136  0.0761 -0.0036
  195CH4    CH4  195   0.898   2.387   8.357  0.1306  0.1637 -0.2564
  196CH4    CH4  196   2.345   2.813   8.590 -0.5371  0.0875 -0.2473
  197CH4    CH4  197   2.863   2.484   7.258  0.0319 -0.2300  0.0830
  198CH4    CH4  198   1.395   2.153   8.093 -0.0358  0.1456 -0.2922
  199CH4    CH4  199   1.564   0.792   7.113 -0.0805 -0.0202 -0.2781
  200CH4    CH4  200   0.766   0.735   7.130  0.1753  0.2581  0.2270
  201CH4    CH4  201   3.320   0.181   6.719 -0.0099 -0.5041 -0.4983
  202CH4    CH4  202   3.186   1.928   6.944  0.2780 -0.4273  0.2033
  203CH4    CH4  203   2.898   3.496   7.119  0.1835 -0.1353  0.1320
  204CH4    CH4  204   1.694   1.765   7.700 -0.2294 -0.1551 -0.2630
  205CH4    CH4  205   3.486   0.055   8.685  0.3252 -0.0085 -0.0620
  206CH4    CH4  206   3.478   0.223   7.674  0.6030 -0.7259 -0.4220
  207CH4    CH4  207   2.681   1.309   6.783  0.6004 -0.2734  0.0183
  208CH4    CH4  208   1.490   1.254   6.809  0.1790  0.1417 -0.1327
  209CH4    CH4  209   1.238   3.457   7.427 -0.1593  0.3523  0.1663
  210CH4    CH4  210   0.586   1.972   8.411  0.3384 -0.1692 -0.1730
  211CH4    CH4  211   1.604   0.590   6.635  0.1516  0.0200 -0.2143
  212CH4    CH4  212   2.910   2.869   7.500 -0.0111  0.2749  0.1410
  213CH4    CH4  213   1.774   1.448   8.232  0.1350 -0.0205  0.0003
  214CH4    CH4  214   2.151   3.263   7.809  0.2767 -0.1987  0.3650
  215CH4    CH4  215   3.236   2.390   7.990 -0.2142  0.5885 -0.0571
  216CH4    CH4  216   0.564   3.481   6.828  0.0083 -0.1008 -0.4243
  217CH4    CH4  217   0.683   2.558   7.892 -0.3391 -0.3112  0.0163
  218CH4    CH4  218   3.310   1.453   7.205  0.0790 -0.2168 -0.1096
  219CH4    CH4  219   2.893   0.717   7.798 -0.1685 -0.2114 -0.4382
  220CH4    CH4  220   3.126   2.545   7.659  0.1154 -0.1271 -0.2108
  221CH4    CH4  221   3.378   0.857   7.417  0.4469  0.0740 -0.0359
  222CH4    CH4  222   2.435   1.369   7.712  0.6685  0.0265 -0.0550
  223CH4    CH4  223   2.387   0.922   6.336  0.0844  0.1653 -0.2272
  224CH4    CH4  224   0.224   1.478   7.394 -0.0292  0.2900 -0.0294
  225CH4    CH4  225   3.577   3.142   8.361  0.1790 -0.0634 -0.3901
  226CH4    CH4  226   1.209   1.055   8.324  0.0749 -0.1259 -0.3511
  227CH4    CH4  227   1.366   1.933   7.185  0.2672 -0.1067 -0.0558
  228CH4    CH4  228   1.556   1.231   8.478 -0.1972  0.4025 -0.2443
  229CH4    CH4  229   0.102   3.783   8.350  0.0111 -0.3313 -0.0074
  230CH4    CH4  230   1.939   3.550   8.240 -0.1394  0.4034  0.1537
  231CH4    CH4  231   0.218   3.252   6.987 -0.1271 -0.5151 -0.0637
  232CH4    CH4  232   0.215   2.861   7.634 -0.3290  0.3617 -0.0567
  233CH4    CH4  233   1.138   1.090   6.594 -0.3201 -0.1451  0.1601
  234CH4    CH4  234   2.538   0.072   8.326 -0.3108  0.3321 -0.0117
  235CH4    CH4  235   3.783   0.377   8.496  0.0922  0.1983 -0.0453
  236CH4    CH4  236   1.692   1.255   7.297 -0.1347  0.4668 -0.0418
  237CH4    CH4  237   3.519   1.568   8.296 -0.0232 -0.4467 -0.1373
  238CH4    CH4  238   3.300   0.810   8.091  0.2091  0.0076  0.1365
  239CH4    CH4  239   0.990   1.778   8.220  0.3783 -0.1316 -0.2236
  240CH4    CH4  240   0.593   1.726   7.890  0.0761 -0.1156  0.2518
  241CH4    CH4  241   2.320   0.992   7.024 -0.2566 -0.3906  0.2978
  242CH4    CH4  242   0.474   0.625   8.271 -0.1397  0.0899  0.3768
  243CH4    CH4  243   3.599   1.168   7.259  0.3224  0.1870 -0.0255
  244CH4    CH4  244   0.160   2.598   8.049 -0.1443  0.3621  0.1111
  245CH4    CH4  245   3.449   2.616   6.625 -0.1616  0.1284  0.2019
  246CH4    CH4  246   2.743   3.243   7.463  0.1050  0.0560  0.1884
  247CH4    CH4  247   1.263   0.222   7.671  0.2385 -0.0682  0.0839
  248CH4    CH4  248   2.696   2.919   8.319 -0.1292  0.0269  0.4401
  249CH4    CH4  249   1.058   0.815   8.012 -0.0488 -0.0007  0.0171
  250CH4    CH4  250   2.805   1.840   6.849 -0.0905 -0.1945 -0.2076
  251CH4    CH4  251   2.055   1.328   7.517 -0.0391 -0.1455 -0.0253
  252CH4    CH4  252   0.877   1.364   8.468 -0.2115 -0.1092  0.0391
  253CH4    CH4  253   3.500   2.126   7.851  0.3965 -0.2843  0.0509
  254CH4    CH4  254   3.037   0.260   7.532  0.0908  0.0124  0.0770
  255CH4    CH4  255   2.122   1.336   9.018  0.0872 -0.4287 -0.2062
  256CH4    CH4  256   0.619   3.124   8.422 -0.1732 -0.0620  0.5559
  257CH4    CH4  257   0.378   3.503   8.336  0.2244  0.2475  0.0313
  258CH4    CH4  258   3.372   0.050   7.096  0.1867 -0.0239 -0.0625
  259CH4    CH4  259   0.249   0.330   8.168  0.2192  0.2842 -0.0824
  260CH4    CH4  260   2.378   2.264   7.097  0.2290  0.1123  0.4650
  261CH4    CH4  261   2.413   3.152   6.735 -0.2948 -0.4095  0.1055
  262CH4    CH4  262   3.561   2.110   6.886 -0.1702 -0.1724 -0.1109
  263CH4    CH4  263   2.465   0.522   6.971  0.1106  0.4823 -0.3120
  264CH4    CH4  264   2.397   2.112   8.725  0.1681 -0.2399 -0.1412
  265CH4    CH4  265   2.490   3.395   7.185  0.1398  0.0083  0.2155
  266CH4    CH4  266   3.115   1.082   6.832  0.0892  0.2326 -0.2123
  267CH4    CH4  267   1.334   1.556   6.470  0.3533 -0.1705  0.3309
  268CH4    CH4  268   1.122   2.570   6.846  0.6454 -0.1157  0.1843
  269CH4    CH4  269   1.455   2.115   7.647  0.1383  0.0765  0.4790
  270CH4    CH4  270   3.709   2.883   7.939  0.0073 -0.0627  0.4778
  271CH4    CH4  271   0.141   3.181   7.429  0.2816  0.0047 -0.1307
  272CH4    CH4  272   2.512   1.836   7.178  0.0096 -0.0647 -0.1069
  273CH4    CH4  273   1.603   2.927   7.916  0.1044  0.0576 -0.0295
  274CH4    CH4  274   2.967   2.218   6.777  0.3572  0.2353 -0.0006
  275CH4    CH4  275   0.455   1.000   7.088 -0.0965 -0.3131  0.3271
  276CH4    CH4  276   0.493   2.081   7.239 -0.0816 -0.3020 -0.0221
  277CH4    CH4  277   0.051   0.946   7.479 -0.1510 -0.0189  0.0617
  278CH4    CH4  278   0.342   1.280   6.034  0.3182 -0.0290  0.0802
  279CH4    CH4  279   2.069   0.656   7.181  0.0030  0.2792  0.1188
  280CH4    CH4  280   1.022   3.295   8.369 -0.3383 -0.0170  0.7684
  281CH4    CH4  281   3.557   1.630   6.477  0.0860 -0.2352  0.0160
  282CH4    CH4  282   3.335   0.123   8.331 -0.2654 -0.1374  0.1312
  283CH4    CH4  283   1.358   1.658   7.517  0.0152 -0.1558  0.5799
  284CH4    CH4  284   2.649   2.974   8.799  0.1305  0.3429 -0.0918
  285CH4    CH4  285   2.547   2.725  11.824  0.2809  0.2292 -0.0303
  286CH4    CH4  286   0.511   3.235   7.602 -0.1835  0.2354 -0.1967
  287CH4    CH4  287   1.996   3.345   8.525 -0.5478 -0.4390 -0.2073
  288CH4    CH4  288   3.489   1.214   6.874  0.0180 -0.1798 -0.3450
  289CH4    CH4  289   0.138   3.243   7.798  0.2265 -0.0233 -0.1563
  290CH4    CH4  290   2.628   2.386   6.672  0.1722  0.0551 -0.1812
  291CH4    CH4  291   2.434   0.196   6.687  0.2092 -0.0626  0.0639
  292CH4    CH4  292   2.680   3.591   7.982 -0.1987 -0.2182  0.0984
  293CH4    CH4  293   0.538   3.525   6.439  0.2197  0.4123 -0.1952
  294CH4    CH4  294   1.799   3.198   7.118 -0.1671  0.1784 -0.2462
  295CH4    CH4  295   1.902   2.738   7.336 -0.3115  0.1913  0.4990
  296CH4    CH4  296   2.613   1.704   7.542 -0.0594  0.1593 -0.0055
  297CH4    CH4  297   1.701   2.401   9.008 -0.1222  0.4874  0.1465
  298CH4    CH4  298   1.366   1.645   8.345  0.1939 -0.1884  0.2222
  299CH4    CH4  299   1.189   2.299   7.455  0.3141 -0.0258 -0.0923
  300CH4    CH4  300   1.486   0.401   8.023  0.2407  0.5096 -0.1687
  301CH4    CH4  301   3.663   1.638   7.310 -0.1188  0.0525  0.3286
  302CH4    CH4  302   0.541   3.290   8.035  0.0578 -0.2412 -0.2459
  303CH4    CH4  303   0.006   3.384   8.192 -0.2169 -0.0443  0.1740
  304CH4    CH4  304   0.801   3.727   8.607 -0.1705 -0.2371  0.0486
  305CH4    CH4  305   1.791   3.431   7.799 -0.1278  0.2053  0.3479
  306CH4    CH4  306   3.018   1.027   6.096 -0.2957 -0.3604  0.1252
  307CH4    CH4  307   2.466   0.820   8.205  0.4268  0.0418 -0.1574
  308CH4    CH4  308   3.707   1.821   6.000 -0.2633  0.7364  0.5782
  309CH4    CH4  309   0.943   3.509   7.090 -0.2237  0.0016  0.2480
  310CH4    CH4  310   3.090   2.234   7.442  0.0109  0.0074  0.0620
  311CH4    CH4  311   0.792   2.674   8.739  0.0051 -0.1223 -0.1023
  312CH4    CH4  312   2.594   0.624   6.564 -0.1540  0.2336 -0.0683
  313CH4    CH4  313   2.520   3.341   7.745 -0.0071  0.5229  0.0410
  314CH4    CH4  314   2.359   3.566   8.577  0.0190 -0.4063 -0.2089
  315CH4    CH4  315   2.568   2.625   6.328  0.2610 -0.0110  0.0815
  316CH4    CH4  316   2.475   0.708   7.700 -0.1273 -0.1910  0.1371
  317CH4    CH4  317   2.459   2.067   8.343 -0.1213 -0.1402 -0.1395
  318CH4    CH4  318   0.587   1.626   6.297  0.1045 -0.5457 -0.2773
  319CH4    CH4  319   3.136   1.134   8.955  0.3678  0.2507 -0.1043
  320CH4    CH4  320   2.067   0.691   8.359 -0.2058 -0.2559 -0.4434
  321CH4    CH4  321   2.084   3.454   7.397  0.0047  0.1407 -0.1625
  322CH4    CH4  322   2.032   1.135   8.267  0.1040 -0.3227 -0.0428
  323CH4    CH4  323   0.892   2.011   7.227 -0.2892 -0.0643  0.1031
  324CH4    CH4  324   1.751   2.544   8.617 -0.1880  0.0415  0.2311
  325CH4    CH4  325   3.425   3.691   7.890  0.1110 -0.2765  0.2973
  326CH4    CH4  326   2.809   0.688   8.740  0.0392 -0.0906 -0.1321
  327CH4    CH4  327   2.769   1.146   8.772 -0.3732  0.0760 -0.1854
  328CH4    CH4  328   0.248   1.740   7.092  0.0497  0.3173 -0.0336
  329CH4    CH4  329   3.142   1.962   7.996 -0.2833 -0.0119 -0.2036
  330CH4    CH4  330   2.371   1.082   7.476  0.0623 -0.0149  0.0513
  331CH4    CH4  331   1.107   0.227   9.078 -0.2474  0.0038  0.4235
  332CH4    CH4  332   0.456   2.345   8.262  0.3025  0.5417  0.3361
  333CH4    CH4  333   1.810   3.305   6.630 -0.5148 -0.0852 -0.1073
  334CH4    CH4  334   3.056   1.777   7.560  0.1807  0.0183 -0.6621
  335CH4    CH4  335   2.834   1.486  10.270 -0.2568 -0.1396  0.0110
  336CH4    CH4  336   1.687   0.056   8.069  0.0221 -0.0054  0.1838
  337CH4    CH4  337   0.086   0.276   7.793 -0.2471 -0.1935 -0.0581
  338CH4    CH4  338   3.472   3.069   7.126 -0.0844 -0.1523 -0.2588
  339CH4    CH4  339   2.932   1.760   7.218 -0.0186 -0.2732  0.1079
  340CH4    CH4  340   1.425   0.902   7.527 -0.0341  0.0581 -0.1221
  341CH4    CH4  341   3.168   1.974   6.000 -0.0064 -0.2350 -0.1770
  342CH4    CH4  342   2.740   2.796   7.910 -0.1058 -0.4816 -0.0305
  343CH4    CH4  343   3.541   1.418   7.882  0.0261 -0.2276 -0.2325
  344CH4    CH4  344   0.361   0.333   7.488 -0.0474  0.2624 -0.1002
  345CH4    CH4  345   0.480   2.916   6.746  0.0962 -0.4258 -0.1237
  346CH4    CH4  346   1.841   2.325   7.714 -0.0689  0.1941  0.2458
  347CH4    CH4  347   1.723   2.088   7.054  0.2028  0.2059  0.0853
  348CH4    CH4  348   3.635   2.541   7.826 -0.1477 -0.0001  0.0973
  349CH4    CH4  349   2.781   2.063   7.533 -0.1495 -0.2550  0.1617
  350CH4    CH4  350   2.236   3.072   7.345  0.0852  0.1872  0.3250
  351CH4    CH4  351   2.712   2.163   7.128 -0.1847  0.1702 -0.1680
  352CH4    CH4  352   0.373   3.649   0.211 -0.5274  0.2119  0.3468
  353CH4    CH4  353   1.720   0.365   7.017 -0.1536  0.3499 -0.0968
  354CH4    CH4  354   3.774   0.616   6.650 -0.3806 -0.3200 -0.2326
  355CH4    CH4  355   0.536   0.258   7.859  0.0605 -1.1184  0.1047
  356CH4    CH4  356   0.116   1.181   6.383 -0.0296  0.0444  0.1044
  357CH4    CH4  357   0.977   2.802   8.265  0.2803  0.0565  0.1503
  358CH4    CH4  358   0.822   1.190   7.229  0.1295 -0.1337  0.1599
  359CH4    CH4  359   2.449   1.283   8.158 -0.4723 -0.3839  0.1462
  360CH4    CH4  360   0.155   0.951   8.343  0.0465  0.3266 -0.1847
  361CH4    CH4  361   1.480   2.522   7.846 -0.1972  0.2877 -0.1398
  362CH4    CH4  362   1.378   0.455   7.311 -0.2966  0.0631 -0.2880
  363CH4    CH4  363   1.979   1.711   8.949  0.1942  0.4564  0.1547
  364CH4    CH4  364   0.736   0.054   9.042 -0.3062  0.0980 -0.0974
  365CH4    CH4  365   3.476   0.485   7.348 -0.1765 -0.4665 -0.1795
  366CH4    CH4  366   0.415   1.350   7.769  0.3115 -0.5893  0.5903
  367CH4    CH4  367   2.504   1.692   8.415  0.0507 -0.0460 -0.1606
  368CH4    CH4  368   2.454   2.967   5.265 -0.2235  0.2078 -0.0929
  369CH4    CH4  369   1.978   0.072   7.362 -0.2676  0.1735 -0.1597
  370CH4    CH4  370   2.962   0.725   8.262  0.1136 -0.1538 -0.0965
  371CH4    CH4  371   1.370   0.059   8.804  0.0549  0.1115 -0.4036
  372CH4    CH4  372   2.882   2.400   6.285  0.3065  0.0278 -0.0405
  373CH4    CH4  373   2.626   2.097   5.859 -0.0110  0.1723 -0.2338
  374CH4    CH4  374   1.384   3.502   8.600  0.1720  0.1122  0.1110
  375CH4    CH4  375   2.380   0.472   8.356 -0.3353 -0.0802  0.0890
  376CH4    CH4  376   0.949   1.497   6.611  0.1937 -0.2003 -0.4205
  377CH4    CH4  377   0.236   2.022   6.546  0.3973 -0.0542 -0.0271
  378CH4    CH4  378   0.610   2.839   7.505  0.2221 -0.4767 -0.4239
  379CH4    CH4  379   1.820   3.279   8.967  0.1699  0.3223 -0.1700
  380CH4    CH4  380   2.245   1.711   7.557  0.1950 -0.0151  0.2982
  381CH4    CH4  381   1.427   0.008   7.183 -0.0478  0.0398  0.3502
  382CH4    CH4  382   0.787   0.699   6.613 -0.0281 -0.0775 -0.1922
  383CH4    CH4  383   1.604   3.509   7.390 -0.1890  0.2320  0.1179
  384CH4    CH4  384   1.853   0.921   7.461 -0.3838  0.0121 -0.0599
  385CH4    CH4  385   3.788   1.410   6.694  0.2812 -0.1377 -0.1673
  386CH4    CH4  386   2.812   1.779   8.625  0.0220  0.1563  0.3537
  387CH4    CH4  387   2.637   2.727   6.920  0.2245  0.2797 -0.0942
  388CH4    CH4  388   0.560   1.122   6.465 -0.4841 -0.1106 -0.0376
  389CH4    CH4  389   0.305   0.972   6.685 -0.3697 -0.0458 -0.3548
  390CH4    CH4  390   2.504   1.385   7.224 -0.2225  0.3848  0.1203
  391CH4    CH4  391   0.670   1.567   7.471  0.1259  0.0944  0.2706
  392CH4    CH4  392   2.278   0.372   7.390 -0.1540 -0.0285 -0.6349
  393CH4    CH4  393   0.468   0.652   6.924 -0.2284 -0.3872  0.3127
  394CH4    CH4  394   0.757   2.374   7.561  0.2013 -0.4923  0.0949
  395CH4    CH4  395   3.245   2.050   6.561  0.0709  0.2601  0.0463
  396CH4    CH4  396   1.671   1.619   8.668 -0.0334  0.2885  0.1834
  397CH4    CH4  397   1.321   3.223   7.758  0.1361 -0.3607 -0.1112
  398CH4    CH4  398   1.708   2.051   8.774  0.3923 -0.2049 -0.0447
  399CH4    CH4  399   0.111   2.724   6.818  0.2810 -0.1798 -0.1330
  400CH4    CH4  400   1.343   2.550   8.238  0.0609 -0.0460  0.2416
  401CH4    CH4  401   0.068   2.112   8.275  0.0315  0.2089  0.0111
  402CH4    CH4  402   3.117   2.039   8.397  0.0586  0.1480 -0.1342
  403CH4    CH4  403   3.624   2.997   7.522  0.0999 -0.3488  0.0591
  404CH4    CH4  404   2.853   2.027   6.314  0.3096 -0.3256 -0.1090
  405CH4    CH4  405   1.975   0.230   7.773 -0.1768 -0.3186  0.1628
  406CH4    CH4  406   2.146   1.644   7.198 -0.0999 -0.1721  0.1959
  407CH4    CH4  407   1.854   2.934   9.172 -0.1257 -0.2700  0.2227
  408CH4    CH4  408   1.035   2.430   7.973  0.3357 -0.1354 -0.0383
  409CH4    CH4  409   1.739   2.344   8.220  0.3872 -0.0622  0.1848
  410CH4    CH4  410   1.988   0.188   6.169 -0.5476  0.0546  0.3352
  411CH4    CH4  411   3.638   0.329   6.954 -0.4136 -0.0385  0.3254
  412CH4    CH4  412   2.841   0.270   6.826  0.1939  0.0486 -0.1588
  413CH4    CH4  413   3.678   1.815   8.043 -0.2034  0.1893  0.1778
  414CH4    CH4  414   2.648   0.440   8.083  0.3829 -0.1012  0.3395
  415CH4    CH4  415   3.798   0.155   7.359 -0.0064  0.2869 -0.3545
  416CH4    CH4  416   1.279   1.456   8.024 -0.1612  0.1189  0.0831
  417CH4    CH4  417   0.923   0.442   9.386  0.5534 -0.0678 -0.1190
  418CH4    CH4  418   2.813   0.983   6.471 -0.2587  0.0986  0.0661
  419CH4    CH4  419   3.202   0.466   7.032  0.3397  0.3123  0.0446
  420CH4    CH4  420   2.861   3.311   6.739 -0.1132  0.1483  0.0093
  421CH4    CH4  421   2.093   0.212   7.023 -0.3343 -0.2672  0.2758
  422CH4    CH4  422   1.171   3.718   8.178  0.1043 -0.4807  0.3985
  423CH4    CH4  423   2.062   2.992   6.870 -0.4815  0.0764 -0.5204
  424CH4    CH4  424   1.102   0.323   8.067  0.1278  0.1608 -0.0408
  425CH4    CH4  425   1.231   3.694   6.786  0.3569  0.1966 -0.1347
  426CH4    CH4  426   2.364   3.785   7.275  0.2568  0.2170 -0.0613
  427CH4    CH4  427   0.438   2.303   7.822  0.3315 -0.1461  0.1305
  428CH4    CH4  428   2.893   1.084   8.070 -0.0470  0.3173 -0.8824
  429CH4    CH4  429   1.367   1.108   7.173  0.2422 -0.2665 -0.2845
  430CH4    CH4  430   0.125   1.602   6.338  0.0489 -0.2307 -0.0227
  431CH4    CH4  431   2.984   3.145   7.836  0.2741  0.1085  0.2526
  432CH4    CH4  432   3.230   3.500   7.414 -0.3623  0.2922 -0.0273
  433CH4    CH4  433   0.208   3.181   8.527  0.0057  0.1793  0.2871
  434CH4    CH4  434   2.152   0.602   6.701  0.2785 -0.2069 -0.4076
  435CH4    CH4  435   1.820   1.652   6.927 -0.3256 -0.2507 -0.0412
  436CH4    CH4  436   0.563   2.185   6.543  0.6320 -0.0729  0.1149
  437CH4    CH4  437   0.900   1.361   8.061 -0.1095  0.0225  0.0674
  438CH4    CH4  438   1.424   0.132   8.409 -0.1087  0.3592  0.1132
  439CH4    CH4  439   1.711   0.922   6.773  0.0663 -0.1473  0.3803
  440CH4    CH4  440   1.243   0.698   6.701  0.0053  0.3370 -0.0233
  441CH4    CH4  441   0.010   2.880   7.189  0.5242 -0.2940 -0.3590
  442CH4    CH4  442   3.585   3.350   7.561 -0.0666 -0.0706 -0.6070
  443CH4    CH4  443   3.436   2.306   8.340  0.1098  0.1176 -0.0754
  444CH4    CH4  444   1.888   3.134   8.100 -0.3477  0.2406 -0.0911
  445CH4    CH4  445   3.757   0.678   8.113 -0.3549  0.0701  0.2488
  446CH4    CH4  446   2.981   0.371   8.377 -0.1277 -0.3248 -0.1881
  447CH4    CH4  447   1.457   0.824   8.068  0.5692  0.0693  0.0333
  448CH4    CH4  448   2.304   2.585   7.775  0.2985  0.1885  0.0179
  449CH4    CH4  449   3.133   2.890   6.889 -0.0551  0.0941 -0.4763
  450CH4    CH4  450   3.306   3.292   0.549  0.1358 -0.2561 -0.1800
  451CH4    CH4  451   1.986   0.967   8.713 -0.4537 -0.0672 -0.2142
  452CH4    CH4  452   2.698   2.956   6.595  0.2083 -0.1365 -0.0226
  453CH4    CH4  453   3.150   0.941   8.532 -0.0499 -0.1401 -0.0823
  454CH4    CH4  454   2.595   2.474   8.486 -0.1979 -0.0071  0.2298
  455CH4    CH4  455   1.664   2.300   7.374  0.2783  0.4391  0.1122
  456CH4    CH4  456   0.878   3.224   6.827  0.2080 -0.3402  0.0013
  457CH4    CH4  457   3.536   0.379   8.121 -0.1484  0.1937 -0.0040
  458CH4    CH4  458   2.591   3.771   6.931  0.0476 -0.1369  0.2840
  459CH4    CH4  459   1.623   3.243   8.445  0.3226  0.2590  0.0406
  460CH4    CH4  460   0.159   2.406   6.508  0.5027 -0.1319 -0.1274
  461CH4    CH4  461   0.183   3.722   6.519  0.0816 -0.0919 -0.0534
  462CH4    CH4  462   1.772   0.419   8.311 -0.2177  0.0031 -0.0091
  463CH4    CH4  463   2.801   1.427   8.348 -0.2062 -0.2422 -0.0970
  464CH4    CH4  464   1.850   1.198   7.915  0.4074  0.2246  0.0459
  465CH4    CH4  465   1.673   0.661   7.713 -0.2504  0.1593  0.1063
  466CH4    CH4  466   1.428   2.339   7.035  0.0294 -0.1227 -0.0195
  467CH4    CH4  467   0.426   1.446   8.214  0.0453 -0.0475 -0.0264
  468CH4    CH4  468   2.115   1.908   6.929 -0.4186  0.0834  0.3269
  469CH4    CH4  469   0.474   2.354   6.973  0.1585  0.0283 -0.1051
  470CH4    CH4  470   1.947   1.120   7.030 -0.0514  0.0024  0.1925
  471CH4    CH4  471   3.124   1.555   6.740  0.0827 -0.1784  0.1253
  472CH4    CH4  472   1.080   3.046   7.179  0.2222  0.5821  0.3975
  473CH4    CH4  473   3.383   0.588   4.552 -0.0273 -0.1611 -0.3515
  474CH4    CH4  474   2.456   0.891   8.664  0.0579 -0.0568 -0.0565
  475CH4    CH4  475   2.033   2.104   8.537  0.0345 -0.1716  0.3350
  476CH4    CH4  476   0.340   1.803   7.533 -0.2588 -0.1583  0.1025
  477CH4    CH4  477   1.407   3.425   7.052  0.3593  0.0780  0.1288
  478CH4    CH4  478   3.290   2.615   7.264  0.3232 -0.3992  0.0031
  479CH4    CH4  479   3.339   0.517   6.490  0.0782 -0.1006 -0.4429
  480CH4    CH4  480   0.741   3.501   7.429 -0.0011 -0.2627  0.2784
  481CH4    CH4  481   0.376   0.043   6.912  0.0608 -0.0829  0.1130
  482CH4    CH4  482   2.578   2.802   7.312 -0.1979  0.1313 -0.3213
  483CH4    CH4  483   2.883   2.247   7.844  0.0216  0.2408  0.1267
  484CH4    CH4  484   3.136   1.725   6.322  0.2670  0.3390  0.4037
  485CH4    CH4  485   1.381   1.557   7.104  0.2757 -0.2319  0.0012
  486CH4    CH4  486   1.107   2.181   6.809  0.0574  0.1561 -0.1832
  487CH4    CH4  487   3.326   2.529   8.847 -0.0994  0.0472  0.2543
  488CH4    CH4  488   1.779   1.420   6.575 -0.0818  0.2174  0.1532
  489CH4    CH4  489   2.650   0.433   7.522  0.1201 -0.2780  0.1404
  490CH4    CH4  490   2.882   0.117   7.842 -0.2708 -0.2721 -0.2066
  491CH4    CH4  491   1.347   0.986   8.826 -0.0199  0.1000 -0.7901
  492CH4    CH4  492   1.942   2.666   8.048  0.2621 -0.3610 -0.3463
  493CH4    CH4  493   3.073   3.659   6.687 -0.5627 -0.0323  0.0768
  494CH4    CH4  494   2.103   0.145   8.195 -0.0844 -0.1091 -0.2741
  495CH4    CH4  495   2.343   2.922   8.036  0.0085  0.1409 -0.3101
  496CH4    CH4  496   2.650   3.638   7.492 -0.2928 -0.0952  0.3567
  497CH4    CH4  497   3.129   3.504   8.022 -0.3440  0.0901 -0.1069
  498CH4    CH4  498   2.486   2.419   8.123  0.2628 -0.1478 -0.3885
  499CH4    CH4  499   1.204   1.112   7.787 -0.1022  0.0107 -0.0890
  500CH4    CH4  500   1.747   1.851   8.327 -0.1250 -0.1640  0.1230
   3.80000   3.80000  14.00000
