Methane liquid-vapour slab (united-atom)
  500
    1CH4    CH4    1   2.068   0.839   8.445  0.5255  0.1308 -0.4457
    2CH4    CH4    2   3.440   3.738   8.402  0.1101 -0.4754  0.1051
    3CH4    CH4    3   2.650   2.528   7.626  0.3421  0.2552 -0.0652
    4CH4    CH4    4   3.668   3.728  12.580 -0.0841  0.1999  0.1656
    5CH4    CH4    5   0.362   0.521   7.767  0.3680 -0.2780 -0.0750
    6CH4    CH4    6   1.227   1.815   8.763 -0.2033 -0.3518 -0.1782
    7CH4    CH4    7   2.276   0.125   8.230  0.3620 -0.2681 -0.0041
    8CH4    CH4    8   0.572   2.008   8.358 -0.2195 -0.0688 -0.5777
    9CH4    CH4    9   2.690   1.566   6.708  0.4731 -0.0343 -0.2169
   10CH4    CH4   10   1.182   1.431   8.635  0.2758  0.1781  0.2396
   11CH4    CH4   11   0.834   2.808   8.746  0.0857 -0.0708 -0.1332
   12CH4    CH4   12   1.951   2.316   7.703 -0.2770 -0.1845 -0.2095
   13CH4    CH4   13   3.591   2.559   8.553  0.0109 -0.0384  0.0676
   14CH4    CH4   14   2.487   0.859   9.173 -0.1467 -0.1708  0.1814
   15CH4    CH4   15   3.720   3.030   6.347 -0.0800  0.1210  0.4727
   16CH4    CH4   16   2.319   2.857   7.962 -0.1734 -0.1141 -0.0669
   17CH4    CH4   17   2.097   2.921   9.052  0.0749  0.1551  0.1750
   18CH4    CH4   18   0.613   0.407   6.858  0.3031  0.1772 -0.1385
   19CH4    CH4   19   2.866   1.883   7.096 -0.1295  0.2814  0.1102
   20CH4    CH4   20   3.217   3.755   9.354  0.3896 -0.1821 -0.1215
   21CH4    CH4   21   0.882   0.317   7.530 -0.1043 -0.4027 -0.4456
   22CH4    CH4   22   1.675   1.172   8.064 -0.3863  0.2961  0.2114
   23CH4    CH4   23   3.079   2.979   7.065 -0.0405 -0.2307  0.2797
   24CH4    CH4   24   2.550   2.834   4.288 -0.0093  0.2147  0.3921
   25CH4    CH4   25   0.116   0.039   7.792 -0.1118 -0.0086  0.1296
   26CH4    CH4   26   3.708   0.938   9.455  0.1105  0.4673 -0.2130
   27CH4    CH4   27   2.117   1.367   7.641 -0.1754 -0.4149  0.0988
   28CH4    CH4   28   2.211   3.505   6.926  0.0628 -0.3000 -0.2546
   29CH4    CH4   29   2.237   2.721   4.685 -0.1383 -0.2784 -0.0434
   30CH4    CH4   30   1.758   2.486  13.231  0.1113  0.1108 -0.1926
   31CH4    CH4   31   2.470   1.077   8.506 -0.0341  0.2168  0.1347
   32CH4    CH4   32   0.682   0.094   7.118 -0.3959  0.0833  0.0849
   33CH4    CH4   33   0.788   2.029   7.684  0.0691  0.0936  0.2810
   34CH4    CH4   34   1.637   2.232   8.132  0.0333 -0.2544  0.0812
   35CH4    CH4   35   1.261   2.251   7.796 -0.1713 -0.1448 -0.0152
   36CH4    CH4   36   3.030   1.959   8.833 -0.1886 -0.0362 -0.2561
   37CH4    CH4   37   0.194   2.261   7.099 -0.2170  0.0090 -0.3695
   38CH4    CH4   38   1.282   0.421   7.133  0.0270  0.3884  0.1739
   39CH4    CH4   39   2.173   0.987   8.110 -0.0238  0.4635 -0.2110
   40CH4    CH4   40   0.347   0.950   7.120  0.5148 -0.3380 -0.1074
   41CH4    CH4   41   3.294   1.104   8.689 -0.0398 -0.1152  0.3009
   42CH4    CH4   42   1.162   0.108   8.516 -0.0716  0.2039 -0.1889
   43CH4    CH4   43   2.135   3.740   1.290  0.0285 -0.1266  0.1211
   44CH4    CH4   44   2.764   1.501   7.861  0.0997  0.5347 -0.2075
   45CH4    CH4   45   1.809   0.214   6.269  0.0574  0.2150  0.2413
   46CH4    CH4   46   0.809   1.481   8.426 -0.2102  0.2603  0.1247
   47CH4    CH4   47   1.002   2.255   8.148  0.1267  0.2341 -0.1067
   48CH4    CH4   48   1.367   3.733   8.785  0.4004  0.0335  0.5627
   49CH4    CH4   49   0.401   0.956   7.692 -0.0959 -0.1816 -0.1779
   50CH4    CH4   50   3.264   0.165   8.927 -0.1732 -0.3080 -0.0354
   51CH4    CH4   51   0.979   2.106  13.079 -0.2325 -0.1973 -0.0932
   52CH4    CH4   52   2.144   3.736   7.421 -0.1218 -0.2497 -0.2486
   53CH4    CH4   53   0.190   2.292   8.427  0.0677 -0.0955 -0.2027
   54CH4    CH4   54   2.124   2.837   0.015  0.3797 -0.0951  0.0396
   55CH4    CH4   55   2.695   0.423   8.398  0.2065 -0.0106 -0.2235
   56CH4    CH4   56   3.236   3.740   7.290  0.2703 -0.2356  0.1566
   57CH4    CH4   57   1.125   0.541   9.403  0.2953  0.1506  0.0185
   58CH4    CH4   58   2.863   3.533   7.180 -0.0274  0.2121  0.2777
   59CH4    CH4   59   1.238   1.197   7.516 -0.2793 -0.3879 -0.0642
   60CH4    CH4   60   1.431   3.192   7.549 -0.0066 -0.1796  0.3729
   61CH4    CH4   61   0.438   0.842   9.041 -0.0605  0.0064  0.2540
   62CH4    CH4   62   3.414   2.837   8.344  0.0358 -0.5005  0.1619
   63CH4    CH4   63   0.893   1.585   8.915  0.3584  0.2738  0.0018
   64CH4    CH4   64   2.338   1.610   7.969 -0.1582  0.1085  0.3435
   65CH4    CH4   65   3.667   3.759   9.377  0.2234  0.2307 -0.1676
   66CH4    CH4   66   1.263   0.835   7.301 -0.0061 -0.1441  0.2756
   67CH4    CH4   67   0.543   1.353   9.136  0.1043  0.2916  0.1548
   68CH4    CH4   68   1.458   2.519   7.961 -0.1014  0.5579  0.3988
   69CH4    CH4   69   3.405   1.790   7.332 -0.2305  0.2545 -0.4403
   70CH4    CH4   70   0.773   3.476   9.440  0.0571  0.2093  0.3974
   71CH4    CH4   71   1.524   0.133   7.383  0.1767  0.7211 -0.3607
   72CH4    CH4   72   1.419   3.555   7.619  0.1062  0.1519  0.2790
   73CH4    CH4   73   2.467   0.696   8.218  0.0844  0.1405 -0.2049
   74CH4    CH4   74   0.003   1.494   6.892 -0.5184 -0.6065  0.0413
   75CH4    CH4   75   2.643   1.714   8.225 -0.1622 -0.2447  0.4927
   76CH4    CH4   76   1.329   2.896   7.846  0.0207 -0.2145 -0.3080
   77CH4    CH4   77   3.177   2.116   8.211  0.4287 -0.0407  0.1677
   78CH4    CH4   78   0.808   3.175   7.054  0.0626 -0.0779 -0.1671
   79CH4    CH4   79   0.977   2.727   8.341 -0.2604 -0.1569  0.0126
   80CH4    CH4   80   3.041   1.352   7.501 -0.2373  0.4124 -0.3034
   81CH4    CH4   81   1.987   1.741   8.297 -0.3509 -0.1000  0.1414
   82CH4    CH4   82   2.021   3.316   8.948 -0.2564  0.0394 -0.2343
   83CH4    CH4   83   0.477   2.923  12.366  0.4431  0.0373  0.0621
   84CH4    CH4   84   1.565   2.966   7.202 -0.2900  0.0758 -0.4050
   85CH4    CH4   85   0.308   2.666   9.461  0.4537 -0.0187 -0.1365
   86CH4    CH4   86   0.562   0.905   8.066  0.0775  0.2221 -0.0850
   87CH4    CH4   87   1.376   3.749   8.175 -0.3365 -0.2985 -0.3205
   88CH4    CH4   88   2.641   0.683   7.061  0.2504  0.4397  0.2016
   89CH4    CH4   89   2.544   0.942   1.882 -0.1353  0.1469  0.1390
   90CH4    CH4   90   3.018   0.477   8.779  0.1383 -0.0059 -0.2190
   91CH4    CH4   91   1.209   0.977   8.642 -0.1820 -0.1374 -0.2328
   92CH4    CH4   92   0.353   3.251   8.427  0.0799  0.2893 -0.0264
   93CH4    CH4   93   1.342   2.894  13.442 -0.2666  0.1947 -0.2016
   94CH4    CH4   94   0.993   1.259   7.867  0.0009  0.0020  0.3709
   95CH4    CH4   95   1.722   3.797  11.226  0.1761  0.0665 -0.0869
   96CH4    CH4   96   2.032   2.052   8.586  0.2710 -0.2409 -0.1651
   97CH4    CH4   97   1.992   2.017   8.024 -0.0635 -0.5590  0.1020
   98CH4    CH4   98   3.538   1.445   7.169 -0.2485  0.0551  0.3391
   99CH4    CH4   99   3.389   1.960   7.942  0.1045  0.1919  0.0920
  100CH4    CH4  100   2.880   0.748   8.557  0.0389 -0.0799 -0.0237
  101CH4    CH4  101   0.572   2.457   8.255 -0.1678  0.1835  0.4775
  102CH4    CH4  102   2.152   2.215   7.416 -0.3841  0.0030 -0.0275
  103CH4    CH4  103   3.747   3.019   8.489  0.1295  0.1827  0.1545
  104CH4    CH4  104   2.051   1.783   7.702 -0.1929  0.0341 -0.1733
  105CH4    CH4  105   0.266   1.663   7.163  0.0243 -0.2976 -0.2955
  106CH4    CH4  106   2.052   3.617   7.947 -0.0319 -0.1148  0.2694
  107CH4    CH4  107   2.937   0.146   8.267 -0.0101  0.3588  0.0087
  108CH4    CH4  108   3.692   0.454   8.490 -0.0415  0.3470  0.0082
  109CH4    CH4  109   2.698   1.410   9.085 -0.1176 -0.3371 -0.0591
  110CH4    CH4  110   3.330   0.705   8.571 -0.0499 -0.0335 -0.1154
  111CH4    CH4  111   1.686   1.360   7.463  0.4056  0.1564  0.0223
  112CH4    CH4  112   3.745   3.498   7.152 -0.2128 -0.3846 -0.3395
  113CH4    CH4  113   1.430   3.380   8.493 -0.3081 -0.1498 -0.0222
  114CH4    CH4  114   3.057   1.067   9.241 -0.1810 -0.0310  0.2441
  115CH4    CH4  115   2.267   0.461   8.555  0.0142  0.1887  0.1156
  116CH4    CH4  116   3.572   1.100   7.396  0.3827 -0.1197 -0.2909
  117CH4    CH4  117   3.605   0.330   7.753  0.0390 -0.2124 -0.5459
  118CH4    CH4  118   1.556   0.543   7.409 -0.2886 -0.0143 -0.1433
  119CH4    CH4  119   1.105   2.890   9.068  0.3451  0.4513  0.0135
  120CH4    CH4  120   2.669   2.750   7.949 -0.1498  0.6101 -0.0424
  121CH4    CH4  121   3.369   2.198  10.745  0.0448 -0.0482 -0.2157
  122CH4    CH4  122   3.653   2.753   5.785 -0.1676  0.2510 -0.4454
  123CH4    CH4  123   0.976   0.326   8.145 -0.1287  0.0236  0.0351
  124CH4    CH4  124   3.039   1.657   8.542  0.3135  0.4431 -0.0485
  125CH4    CH4  125   1.311   1.889   7.629  0.3342  0.0246 -0.1484
  126CH4    CH4  126   2.639   3.357   7.720  0.0469 -0.0286  0.4142
  127CH4    CH4  127   2.708   3.528   8.132  0.3599 -0.2866 -0.0942
  128CH4    CH4  128   2.355   2.506   8.139 -0.3362 -0.0437 -0.2869
  129CH4    CH4  129   1.156   3.116   8.280 -0.1696  0.0570  0.0887
  130CH4    CH4  130   0.458   3.580   5.486  0.3822 -0.0836 -0.2818
  131CH4    CH4  131   2.279   0.869   8.790  0.0335  0.2433  0.0707
  132CH4    CH4  132   2.980   3.015   7.674 -0.0311  0.3608  0.2532
  133CH4    CH4  133   3.003   0.039   8.668  0.4126  0.0330  0.1196
  134CH4    CH4  134   0.967   3.161   7.929  0.1634 -0.0225 -0.3660
  135CH4    CH4  135   3.324   2.767   7.530 -0.3232 -0.0640  0.2358
  136CH4    CH4  136   2.655   0.571   8.940  0.3941 -0.2112  0.2512
  137CH4    CH4  137   1.836   0.166   8.165  0.2702 -0.3033 -0.0339
  138CH4    CH4  138   2.379   1.279   8.896 -0.1114 -0.0388 -0.2695
  139CH4    CH4  139   0.311   0.226   8.481  0.5138 -0.1143  0.0183
  140CH4    CH4  140   1.146   1.719  12.949  0.1310 -0.1577  0.3001
  141CH4    CH4  141   1.021   0.077   9.389 -0.0283 -0.0825  0.0862
  142CH4    CH4  142   3.355   0.236   6.973  0.2298 -0.0665 -0.0449
  143CH4    CH4  143   1.502   3.021   9.170 -0.2978  0.0461  0.1435
  144CH4    CH4  144   0.960   0.225   8.868 -0.3950  0.0132  0.2671
  145CH4    CH4  145   3.192   3.208   8.166  0.0852  0.1928  0.0126
  146CH4    CH4  146   1.456   2.142   9.346  0.3024  0.0799 -0.3151
  147CH4    CH4  147   0.999   2.900   6.853 -0.1968 -0.2686 -0.1272
  148CH4    CH4  148   2.039   2.317   8.258 -0.1992  0.3963  0.1149
  149CH4    CH4  149   2.508   1.470   7.081  0.0205  0.1850 -0.0256
  150CH4    CH4  150   3.759   0.279   7.313 -0.4017 -0.0087  0.1339
  151CH4    CH4  151   0.098   0.414   8.126 -0.1153 -0.1089 -0.2116
  152CH4    CH4  152   2.466   2.730   9.051  0.1722 -0.0763 -0.2025
  153CH4    CH4  153   1.437   0.841   8.911 -0.0566 -0.3348  0.0551
  154CH4    CH4  154   0.171   2.022   8.158 -0.0701  0.0107  0.2518
  155CH4    CH4  155   1.763   3.710   6.963 -0.2965  0.1119 -0.0417
  156CH4    CH4  156   2.101   2.814   8.265 -0.0327 -0.0507  0.6743
  157CH4    CH4  157   2.241   2.843   9.567  0.1567  0.1267  0.0784
  158CH4    CH4  158   2.644   3.634   8.869  0.2261 -0.1569  0.3148
  159CH4    CH4  159   0.394   1.410   8.503  0.0047  0.0286  0.0216
  160CH4    CH4  160   3.314   0.744   7.617 -0.0813 -0.0714 -0.1654
  161CH4    CH4  161   1.186   2.904   7.381 -0.2840  0.1864 -0.1670
  162CH4    CH4  162   0.852   2.746   7.212  0.1769  0.4969 -0.2212
  163CH4    CH4  163   1.956   2.344   6.522  0.2226  0.5093 -0.3384
  164CH4    CH4  164   2.500   2.040   7.269 -0.3576 -0.4475  0.6007
  165CH4    CH4  165   0.459   0.391   4.221  0.1564  0.1708  0.3739
  166CH4    CH4  166   1.269   1.206   8.968 -0.4074  0.1520  0.2509
  167CH4    CH4  167   1.576   0.525   9.736  0.0419 -0.0977 -0.0947
  168CH4    CH4  168   0.307   3.632   8.623  0.0018  0.0044 -0.1651
  169CH4    CH4  169   1.048   1.655   6.869  0.1411 -0.5791  0.1261
  170CH4    CH4  170   3.042   2.797   8.229  0.1543  0.6937 -0.1143
  171CH4    CH4  171   3.649   2.047   8.497 -0.1664  0.1019 -0.1286
  172CH4    CH4  172   1.400   2.589   7.224 -0.2376  0.3659  0.3790
  173CH4    CH4  173   0.204   0.782   8.137  0.3490  0.5527  0.4317
  174CH4    CH4  174   0.802   1.127   8.863 -0.1184  0.1746 -0.3240
  175CH4    CH4  175   1.918   2.572   7.967  0.1757 -0.2240 -0.1268
  176CH4    CH4  176   2.446   1.699   7.573  0.2239  0.3330 -0.2417
  177CH4    CH4  177   0.515   2.480   7.346  0.0841 -0.5444  0.3923
  178CH4    CH4  178   2.693   2.691   8.623 -0.2217  0.4051 -0.0337
  179CH4    CH4  179   0.708   3.488   8.618 -0.0744  0.1733 -0.1964
  180CH4    CH4  180   1.818   3.081   7.521  0.1047  0.1412  0.3189
  181CH4    CH4  181   2.666   2.443   7.235 -0.0323 -0.1797  0.1618
  182CH4    CH4  182   0.008   3.220   8.893  0.0349 -0.4226 -0.3339
  183CH4    CH4  183   2.822   3.129   8.041  0.0177 -0.0031 -0.4476
  184CH4    CH4  184   1.650   1.736   7.487  0.0183  0.0699 -0.0408
  185CH4    CH4  185   1.686   3.762   8.523  0.0054  0.2959 -0.2920
  186CH4    CH4  186   2.880   0.257   7.478 -0.1292  0.3175  0.0554
  187CH4    CH4  187   0.653   2.790   7.892 -0.1535 -0.2789 -0.1016
  188CH4    CH4  188   0.134   3.740   8.973  0.1247 -0.2444  0.5395
  189CH4    CH4  189   0.108   1.096   9.089 -0.1081 -0.2632 -0.0568
  190CH4    CH4  190   0.103   3.103   8.138  0.1197 -0.1081 -0.0010
  191CH4    CH4  191   1.683   0.353   7.063 -0.6001  0.2871  0.0704
  192CH4    CH4  192   2.880   0.193   8.988 -0.2829 -0.2798 -0.0594
  193CH4    CH4  193   0.563   1.684   8.052 -0.3223  0.3586  0.1552
  194CH4    CH4  194   0.400   3.185   7.893  0.2488 -0.2955 -0.2219
  195CH4    CH4  195   2.105   0.464   8.219 -0.0423  0.1920  0.2064
  196CH4    CH4  196   3.721   2.038   7.823 -0.5089 -0.0454 -0.1537
  197CH4    CH4  197   1.499   1.555   8.951 -0.0736 -0.2837 -0.0162
  198CH4    CH4  198   1.810   3.470   7.657 -0.0506 -0.0771  0.0707
  199CH4    CH4  199   2.603   3.120   6.893 -0.1742  0.0974 -0.0987
  200CH4    CH4  200   1.380   2.910   8.652  0.0717  0.2161  0.0030
  201CH4    CH4  201   3.270   1.226   6.983  0.0240  0.2882 -0.0759
  202CH4    CH4  202   1.880   0.301   7.483 -0.0798  0.1124 -0.0115
  203CH4    CH4  203   0.411   2.127   8.771 -0.4440  0.0982  0.2332
  204CH4    CH4  204   0.979   0.897   8.053  0.3054  0.0686 -0.0491
  205CH4    CH4  205   3.315   0.347   7.392  0.1619 -0.1743  0.1563
  206CH4    CH4  206   2.025   0.145   7.100  0.0634 -0.1942  0.1756
  207CH4    CH4  207   2.333   1.811   8.999  0.0073  0.0734 -0.1100
  208CH4    CH4  208   0.545   2.082   7.955  0.1268 -0.5706 -0.1968
  209CH4    CH4  209   2.203   3.087   7.381  0.3427  0.0690  0.0074
  210CH4    CH4  210   1.990   3.208   8.191 -0.1632 -0.2158 -0.0735
  211CH4    CH4  211   3.447   2.520   0.792 -0.0616 -0.0908  0.2724
  212CH4    CH4  212   0.778   2.418   7.830  0.0748  0.0962  0.1636
  213CH4    CH4  213   2.825   1.794   7.628 -0.2393 -0.4624  0.0278
  214CH4    CH4  214   0.108   1.731   8.431  0.1565  0.0527  0.4933
  215CH4    CH4  215   0.030   3.102   9.319  0.2305  0.1017  0.3765
  216CH4    CH4  216   2.639   1.499   8.563  0.0110  0.2475 -0.2546
  217CH4    CH4  217   3.472   3.491   9.148 -0.1381 -0.1752 -0.0851
  218CH4    CH4  218   1.639   1.828   7.869  0.0556  0.1345 -0.1483
  219CH4    CH4  219   1.412   3.308   7.958 -0.2508  0.0488 -0.2180
  220CH4    CH4  220   1.572   2.570   8.777 -0.2000  0.2409  0.1479
  221CH4    CH4  221   1.622   2.136   7.573 -0.1571 -0.2713 -0.0625
  222CH4    CH4  222   0.027   0.709   8.786 -0.3788  0.1797 -0.1196
  223CH4    CH4  223   2.297   0.932   7.231 -0.2477  0.1304 -0.0651
  224CH4    CH4  224   0.018   3.769   8.294 -0.0115  0.0418  0.1810
  225CH4    CH4  225   0.425   3.600   7.771  0.2483  0.0774  0.1777
  226CH4    CH4  226   0.839   2.362   8.492  0.0605  0.2854 -0.3693
  227CH4    CH4  227   1.155   1.204   8.321 -0.1821 -0.2305 -0.3963
  228CH4    CH4  228   1.727   3.070   7.882  0.0789  0.4449  0.1394
  229CH4    CH4  229   2.408   0.953  12.879 -0.4175  0.0840  0.1030
  230CH4    CH4  230   3.014   2.383   8.601 -0.1249 -0.3206  0.1518
  231CH4    CH4  231   3.049   0.754   7.877 -0.3955  0.0819 -0.1829
  232CH4    CH4  232   3.029   3.512   8.424  0.0625  0.0831 -0.2210
  233CH4    CH4  233   2.853   1.980   8.393 -0.0292 -0.0140  0.1226
  234CH4    CH4  234   3.594   0.883   9.093 -0.0744  0.1743  0.4832
  235CH4    CH4  235   2.309   2.710   8.702 -0.4426 -0.0886 -0.0050
  236CH4    CH4  236   1.282   2.062   6.950  0.1294 -0.2431 -0.2922
  237CH4    CH4  237   1.592   2.468   9.114  0.1143  0.0531  0.5006
  238CH4    CH4  238   1.997   1.350   7.989 -0.2421 -0.1778 -0.1563
  239CH4    CH4  239   3.354   1.714   8.278 -0.2032  0.1846 -0.1869
  240CH4    CH4  240   3.378   2.172   8.747  0.1426  0.0822 -0.2600
  241CH4    CH4  241   3.134   0.813   8.948 -0.2149  0.0428  0.3552
  242CH4    CH4  242   3.373   0.247   8.131  0.4830  0.2774 -0.3759
  243CH4    CH4  243   1.714   1.110   9.249  0.1112 -0.3510  0.0411
  244CH4    CH4  244   2.365   0.349   7.186  0.3639  0.2359 -0.3515
  245CH4    CH4  245   3.506   1.372   8.012 -0.1608 -0.3419 -0.2435
  246CH4    CH4  246   2.016   0.288   7.858  0.3191  0.2223  0.0623
  247CH4    CH4  247   0.866   2.018   8.668  0.0330  0.0378  0.5010
  248CH4    CH4  248   0.652   1.947   6.986 -0.3266  0.1108 -0.1863
  249CH4    CH4  249   0.024   1.124   7.816 -0.0046  0.2699 -0.1375
  250CH4    CH4  250   3.022   3.589   8.942  0.2443 -0.1442  0.1300
  251CH4    CH4  251   3.570   0.406   8.851  0.0339 -0.0425 -0.2758
  252CH4    CH4  252   2.966   2.264   7.403  0.0758 -0.0816 -0.2596
  253CH4    CH4  253   0.717   1.459   7.709 -0.3649 -0.1563  0.2040
  254CH4    CH4  254   2.857   0.393   7.922  0.2023 -0.0893 -0.0725
  255CH4    CH4  255   0.145   2.735   7.294 -0.4577  0.0848  0.4460
  256CH4    CH4  256   1.902   0.923   7.729 -0.0441  0.0945 -0.5567
  257CH4    CH4  257   0.074   3.428   7.872  0.0299  0.3703 -0.3553
  258CH4    CH4  258   2.238   1.568   8.511 -0.2331 -0.2332  0.2188
  259CH4    CH4  259   3.767   0.659   7.057  0.3330  0.1904  0.0968
  260CH4    CH4  260   2.273   2.272   8.895  0.0369 -0.0696  0.0494
  261CH4    CH4  261   0.824   3.614   7.696 -0.0230  0.8822 -0.4260
  262CH4    CH4  262   2.380   2.017   8.135  0.0002  0.3885  0.1487
  263CH4    CH4  263   1.157   2.524   9.190  0.1079 -0.2791  0.1275
  264CH4    CH4  264   3.554   0.921   8.317 -0.1087 -0.0803 -0.2298
  265CH4    CH4  265   2.598   2.302   8.435 -0.4522 -0.0654  0.0998
  266CH4    CH4  266   2.626   2.046   8.824  0.1994 -0.0569  0.4383
  267CH4    CH4  267   3.265   0.781   0.310 -0.2120  0.2978 -0.0318
  268CH4    CH4  268   3.161   2.328  13.568  0.0724 -0.3443 -0.3365
  269CH4    CH4  269   3.370   2.496   0.381  0.5090 -0.2026  0.4056
  270CH4    CH4  270   1.572   1.659   6.857 -0.0889 -0.1933  0.5750
  271CH4    CH4  271   2.488   1.246   8.153  0.1423 -0.2149  0.1007
  272CH4    CH4  272   1.247   2.525   6.843 -0.1337 -0.3164  0.0972
  273CH4    CH4  273   1.288   2.061   8.474  0.4843 -0.1148 -0.3336
  274CH4    CH4  274   2.552   0.812   7.866  0.2593 -0.0746  0.3887
  275CH4    CH4  275   2.428   1.179   7.779  0.4372  0.0166  0.0585
  276CH4    CH4  276   2.963   0.663   7.454  0.1451  0.0652 -0.3522
  277CH4    CH4  277   1.845   2.880   8.688  0.4625  0.4879  0.0566
  278CH4    CH4  278   1.077   2.654   7.744  0.0457  0.3255  0.0532
  279CH4    CH4  279   0.787   3.146   8.459 -0.1210  0.1198 -0.3201
  280CH4    CH4  280   0.205   2.512  12.537 -0.2512 -0.3148 -0.0280
  281CH4    CH4  281   1.875   3.220   6.888  0.0970  0.1183  0.2058
  282CH4    CH4  282   2.745   1.052   8.795 -0.1161 -0.5068 -0.0947
  283CH4    CH4  283   2.670   2.952  13.619 -0.2102  0.0763  0.3249
  284CH4    CH4  284   2.026   0.569   7.183  0.2402 -0.4256 -0.0171
  285CH4    CH4  285   3.270   1.368   9.476  0.2630  0.2530  0.2104
  286CH4    CH4  286   2.460   3.418   8.433  0.0960 -0.4746 -0.4207
  287CH4    CH4  287   0.992   3.652   4.403 -0.1157 -0.3784  0.1854
  288CH4    CH4  288   2.436   2.094   7.718  0.0098  0.2778 -0.0185
  289CH4    CH4  289   1.856   3.354   8.594 -0.0083  0.0605  0.1875
  290CH4    CH4  290   2.879   2.399   8.173  0.1365  0.1936  0.4791
  291CH4    CH4  291   2.219   0.727   7.692 -0.0919 -0.2196 -0.2930
  292CH4    CH4  292   2.712   0.316   9.369 -0.4402  0.0098 -0.3631
  293CH4    CH4  293   2.422   3.403   7.291  0.2377 -0.6010  0.2817
  294CH4    CH4  294   1.437   0.309   8.274  0.0126 -0.2264 -0.2389
  295CH4    CH4  295   1.725   0.933   7.363  0.0183  0.2857 -0.1730
  296CH4    CH4  296   2.983   3.542   7.588 -0.2966  0.2023  0.3085
  297CH4    CH4  297   3.690   2.333   7.471 -0.2825  0.0370  0.1720
  298CH4    CH4  298   0.137   3.118   7.584  0.2770 -0.3376 -0.0626
  299CH4    CH4  299   3.197   0.388   7.805 -0.0757 -0.1248 -0.0442
  300CH4    CH4  300   0.777   1.674   7.303  0.3641 -0.4885 -0.3400
  301CH4    CH4  301   3.647   0.478   9.229  0.3659 -0.1721  0.1657
  302CH4    CH4  302   1.918   1.034   8.936 -0.1083  0.5510 -0.0277
  303CH4    CH4  303   2.048   2.600   7.296  0.1978 -0.0438  0.2385
  304CH4    CH4  304   0.658   1.271   8.113 -0.0317  0.2328 -0.0739
  305CH4    CH4  305   0.370   3.648   7.082  0.2015 -0.6342  0.0173
  306CH4    CH4  306   0.935   1.376   2.966 -0.1860 -0.0403 -0.0846
  307CH4    CH4  307   3.497   0.687   7.994  0.2567  0.1009 -0.3619
  308CH4    CH4  308   2.691   3.320   2.772 -0.1955  0.0674 -0.0156
  309CH4    CH4  309   2.818   0.346   7.120  0.0761  0.2076 -0.1306
  310CH4    CH4  310   2.839   0.845   8.170 -0.0783  0.3158 -0.0970
  311CH4    CH4  311   3.108   1.425   7.973 -0.1811 -0.0298 -0.3082
  312CH4    CH4  312   0.085   2.759   8.897 -0.4912 -0.1316 -0.1113
  313CH4    CH4  313   1.104   3.541   6.993  0.0074 -0.1967 -0.1764
  314CH4    CH4  314   1.053   1.971   7.329 -0.1365 -0.1257 -0.0922
  315CH4    CH4  315   0.251   1.040   8.405  0.2942 -0.0113 -0.1768
  316CH4    CH4  316   0.974   1.656   7.927 -0.7516 -0.4303 -0.0243
  317CH4    CH4  317   2.297   1.901   2.200  0.4778 -0.1714 -0.3531
  318CH4    CH4  318   3.402   3.252   8.556  0.0266  0.1375  0.4024
  319CH4    CH4  319   0.462   1.708   8.807 -0.2515  0.2259  0.3530
  320CH4    CH4  320   0.373   1.314   7.864  0.2299  0.0307  0.3180
  321CH4    CH4  321   0.262   2.806   7.878  0.6218 -0.0029 -0.0578
  322CH4    CH4  322   1.936   1.237   8.354 -0.0726 -0.0883 -0.0422
  323CH4    CH4  323   2.162   3.591   8.701  0.0913 -0.0172  0.0996
  324CH4    CH4  324   1.167   3.214   8.830  0.2835  0.0739 -0.0666
  325CH4    CH4  325   3.273   0.160   0.250 -0.2191  0.0248 -0.1928
  326CH4    CH4  326   0.060   1.891   8.854  0.0249  0.0625  0.0673
  327CH4    CH4  327   2.497   2.799   7.201  0.0851  0.1626 -0.1762
  328CH4    CH4  328   2.430   0.206   8.816  0.1047  0.1777  0.5362
  329CH4    CH4  329   3.727   3.479   8.586 -0.0883  0.2082  0.0902
  330CH4    CH4  330   0.598   0.719   7.459  0.1334 -0.4219 -0.1603
  331CH4    CH4  331   1.550   2.768   7.574 -0.3755  0.0485  0.3246
  332CH4    CH4  332   1.814   1.864   7.090 -0.1843  0.2194 -0.4870
  333CH4    CH4  333   0.363   2.424   8.983  0.1040  0.3877 -0.0785
  334CH4    CH4  334   0.124   1.260   7.336  0.3661 -0.1909  0.0511
  335CH4    CH4  335   3.564   2.677   7.273 -0.2885  0.3852 -0.0760
  336CH4    CH4  336   0.675   3.388   6.708 -0.0446 -0.2252 -0.4014
  337CH4    CH4  337   0.776   0.095   8.372 -0.0080 -0.3207 -0.0782
  338CH4    CH4  338   1.337   1.982   8.101  0.0939  0.1868  0.4482
  339CH4    CH4  339   0.248   0.175   9.313  0.4852  0.3028 -0.1326
  340CH4    CH4  340   0.856   0.955   7.661 -0.6006  0.1261  0.1967
  341CH4    CH4  341   1.300   0.513   8.624  0.0487 -0.1640  0.2619
  342CH4    CH4  342   1.777   2.571   8.345 -0.5714  0.2041  0.0142
  343CH4    CH4  343   3.381   3.645   8.773 -0.3451 -0.4905 -0.3880
  344CH4    CH4  344   0.607   0.466   8.327  0.3742  0.0118  0.6177
  345CH4    CH4  345   1.322   1.114   1.752 -0.1193  0.1593  0.0343
  346CH4    CH4  346   3.304   2.540   8.121  0.2819  0.1546  0.3456
  347CH4    CH4  347   0.808   0.826   9.348 -0.0532  0.0573  0.1853
  348CH4    CH4  348   1.249   1.578   8.289 -0.3275  0.3789 -0.1664
  349CH4    CH4  349   1.633   0.488   8.851 -0.0773 -0.0338 -0.5637
  350CH4    CH4  350   0.519   2.863   9.051 -0.0794 -0.4356 -0.2209
  351CH4    CH4  351   0.527   3.219   8.944 -0.2237  0.2727  0.1703
  352CH4    CH4  352   0.378   1.546   6.829  0.4287 -0.2831  0.0065
  353CH4    CH4  353   1.656   3.066   8.416 -0.4555 -0.2294 -0.0948
  354CH4    CH4  354   1.867   3.396   7.270 -0.0155  0.0796  0.2877
  355CH4    CH4  355   0.591   1.203   7.422 -0.2649 -0.3364  0.1762
  356CH4    CH4  356   2.611   0.094   7.995 -0.0731  0.0195  0.3061
  357CH4    CH4  357   3.663   2.832   7.722 -0.0144 -0.1820  0.1728
  358CH4    CH4  358   2.286   2.482   7.721  0.0293  0.0344 -0.1570
  359CH4    CH4  359   1.075   3.266   7.337 -0.0635  0.2703  0.2355
  360CH4    CH4  360   0.493   2.836   8.235  0.0296  0.4161 -0.2961
  361CH4    CH4  361   2.890   2.788   7.365 -0.2513 -0.5426 -0.5210
  362CH4    CH4  362   2.984   1.810   8.008 -0.4247 -0.1048 -0.0634
  363CH4    CH4  363   2.212   3.138   8.544 -0.1845  0.0390  0.1663
  364CH4    CH4  364   3.567   3.369   8.217  0.1387 -0.1069 -0.0791
  365CH4    CH4  365   2.859   1.100   7.835  0.4041 -0.1224  0.1665
  366CH4    CH4  366   0.600   2.777   6.850 -0.4761  0.2696  0.1632
  367CH4    CH4  367   3.509   2.457   7.785 -0.1092  0.0289 -0.0268
  368CH4    CH4  368   3.003   0.006   7.865 -0.0503  0.0493  0.3576
  369CH4    CH4  369   1.090   3.564   8.374 -0.0642 -0.1672  0.0525
  370CH4    CH4  370   1.671   2.320   7.169  0.2248 -0.0483  0.0442
  371CH4    CH4  371   3.783   1.487   1.704  0.3441  0.0052 -0.1193
  372CH4    CH4  372   2.505   2.175   4.622 -0.1140  0.3529  0.0704
  373CH4    CH4  373   0.806   0.729   8.839  0.1902 -0.0768  0.1261
  374CH4    CH4  374   3.731   0.078   8.661  0.2071 -0.1209  0.0413
  375CH4    CH4  375   0.202   1.919   6.821 -0.3344 -0.1454 -0.5234
  376CH4    CH4  376   2.246   3.207   7.734  0.0904  0.0633  0.2437
  377CH4    CH4  377   1.756   2.541   3.719 -0.1658  0.2694  0.0602
  378CH4    CH4  378   3.194   1.023   8.147 -0.5558 -0.2964 -0.3952
  379CH4    CH4  379   3.279   0.753   9.326  0.0012  0.0996  0.1601
  380CH4    CH4  380   1.851   3.714   8.944  0.3050 -0.1751  0.2199
  381CH4    CH4  381   3.296   2.870   7.955 -0.3709 -0.0783  0.0416
  382CH4    CH4  382   1.926   2.964   6.300  0.0876 -0.1464 -0.0498
  383CH4    CH4  383   0.504   0.152   7.589 -0.0960 -0.0780  0.4700
  384CH4    CH4  384   0.324   3.661   8.136 -0.2267  0.2632 -0.0337
  385CH4    CH4  385   1.738   0.516   8.443  0.2623 -0.1681 -0.0868
  386CH4    CH4  386   3.282   1.152   2.588  0.4409 -0.6402  0.0247
  387CH4    CH4  387   3.121   2.215   7.819  0.3860  0.0812  0.5271
  388CH4    CH4  388   1.421   0.822   7.682 -0.0890 -0.2150  0.1045
  389CH4    CH4  389   2.571   2.976   7.599  0.1713 -0.4332  0.4465
  390CH4    CH4  390   3.614   1.473   7.576 -0.2223 -0.1296 -0.4289
  391CH4    CH4  391   2.757   3.160   7.275 -0.3013  0.3020  0.1558
  392CH4    CH4  392   2.084   0.941   9.290 -0.1407  0.4248 -0.1863
  393CH4    CH4  393   0.596   0.178   8.736  0.0386  0.2989  0.3395
  394CH4    CH4  394   2.025   0.418   8.823  0.3578 -0.1157  0.0746
  395CH4    CH4  395   0.515   2.885   7.393 -0.1082  0.3858  0.1121
  396CH4    CH4  396   3.384   3.388   7.402 -0.1126  0.0776  0.2312
  397CH4    CH4  397   0.599   0.199   7.979  0.2449  0.0228  0.0750
  398CH4    CH4  398   0.247   0.523   9.132  0.1277 -0.4168  0.2050
  399CH4    CH4  399   1.869   2.162   8.953 -0.2028 -0.3968 -0.1512
  400CH4    CH4  400   1.178   0.340   3.505  0.2470 -0.3160 -0.0060
  401CH4    CH4  401   0.917   3.634   8.924 -0.3764 -0.0382 -0.1049
  402CH4    CH4  402   3.064   3.039   8.577 -0.0685 -0.2587  0.0234
  403CH4    CH4  403   3.338   0.830   7.146  0.3201  0.2168  0.1372
  404CH4    CH4  404   1.546   3.297   6.502 -0.0536 -1.0682  0.1373
  405CH4    CH4  405   3.790   1.658   8.074  0.2704  0.2730  0.0050
  406CH4    CH4  406   3.304   3.229   8.950  0.1603  0.1849 -0.1355
  407CH4    CH4  407   2.094   0.202   9.124  0.2324 -0.2514 -0.2848
  408CH4    CH4  408   1.343   1.543   7.846  0.0341 -0.9127 -0.4248
  409CH4    CH4  409   1.621   0.919   8.535 -0.1197 -0.1956  0.0687
  410CH4    CH4  410   1.879   2.991   9.506 -0.2625  0.5447  0.3638
  411CH4    CH4  411   1.172   1.574   7.451 -0.0873  0.3045  0.3153
  412CH4    CH4  412   0.993   1.222   9.235  0.3286 -0.2459  0.1632
  413CH4    CH4  413   1.620   0.009   7.864 -0.5852 -0.5344 -0.3439
  414CH4    CH4  414   1.699   2.265   8.545  0.1762 -0.0495 -0.0874
  415CH4    CH4  415   3.512   1.624   8.875  0.0201  0.5248 -0.0090
  416CH4    CH4  416   1.126   0.558   8.983  0.1807 -0.2051 -0.0143
  417CH4    CH4  417   1.100   0.041   7.292 -0.2461 -0.1222 -0.0067
  418CH4    CH4  418   2.539   3.761   7.210 -0.0984 -0.0169  0.2027
  419CH4    CH4  419   1.283   2.260   7.408 -0.1781 -0.3715  0.1716
  420CH4    CH4  420   3.624   2.307   8.181  0.2444 -0.3116  0.2198
  421CH4    CH4  421   3.032   2.606   7.798 -0.3096  0.7496  0.2997
  422CH4    CH4  422   3.389   1.319   8.400 -0.3525 -0.0585  0.1580
  423CH4    CH4  423   3.780   1.311   8.317  0.4206 -0.2620  0.1034
  424CH4    CH4  424   2.791   3.319   8.745  0.0319 -0.2321 -0.4410
  425CH4    CH4  425   2.383   3.295   8.092 -0.3110  0.2508  0.0818
  426CH4    CH4  426   0.256   2.397   7.994  0.2567 -0.2445 -0.0807
  427CH4    CH4  427   3.369   3.648   8.002  0.3166  0.0107 -0.0751
  428CH4    CH4  428   2.406   1.951   8.515 -0.0050  0.0958  0.2020
  429CH4    CH4  429   0.964   3.739   8.044  0.2650  0.0154  0.1848
  430CH4    CH4  430   2.911   1.175   8.433 -0.4734 -0.1102 -0.1243
  431CH4    CH4  431   3.156   0.568   8.221 -0.2574 -0.1789 -0.2427
  432CH4    CH4  432   3.053   1.705   9.292  0.0972 -0.3954 -0.2937
  433CH4    CH4  433   2.417   0.435   7.919  0.1994  0.3351 -0.5758
  434CH4    CH4  434   2.716   2.602  12.531 -0.0873  0.4523  0.1275
  435CH4    CH4  435   1.442   0.670   8.135  0.1233 -0.0065  0.0061
  436CH4    CH4  436   0.762   2.468   9.017 -0.1830 -0.1610 -0.0390
  437CH4    CH4  437   2.030   3.592   8.338  0.0717 -0.2560  0.3071
  438CH4    CH4  438   1.069   0.558  10.521 -0.0111  0.0053  0.2879
  439CH4    CH4  439   0.947   0.564   8.484 -0.2765 -0.3018 -0.1043
  440CH4    CH4  440   1.423   2.884   6.841 -0.0455  0.4272 -0.0628
  441CH4    CH4  441   0.905   2.244   7.089  0.0239  0.1454 -0.0071
  442CH4    CH4  442   0.253   1.634   7.741 -0.0858  0.1674  0.0365
  443CH4    CH4  443   2.164   1.805   7.302  0.1340 -0.3488  0.1991
  444CH4    CH4  444   0.425   1.888   7.504  0.2805  0.1863 -0.3167
  445CH4    CH4  445   2.049   2.784   7.654 -0.3191 -0.1079  0.0914
  446CH4    CH4  446   0.153   3.657   7.484  0.2609  0.1189 -0.1103
  447CH4    CH4  447   0.097   0.843   7.430  0.0641  0.3495 -0.1500
  448CH4    CH4  448   3.325   0.299   8.527  0.2112  0.4162  0.1393
  449CH4    CH4  449   1.470   2.085   8.895  0.2745  0.2897  0.3045
  450CH4    CH4  450   2.609   0.029   8.444 -0.0063  0.0338  0.3032
  451CH4    CH4  451   2.699   2.133   7.991 -0.1032  0.1910 -0.0954
  452CH4    CH4  452   1.164   2.352   8.737 -0.0756  0.4295  0.5768
  453CH4    CH4  453   3.726   2.709   8.090 -0.1134  0.2777 -0.2754
  454CH4    CH4  454   1.008   2.044   9.076  0.0033 -0.2065  0.3109
  455CH4    CH4  455   0.734   0.609   7.860  0.2331  0.1257 -0.5243
  456CH4    CH4  456   0.008   2.319   8.787  0.1479  0.0986 -0.2964
  457CH4    CH4  457   2.397   3.311   8.886 -0.2237  0.4002 -0.2287
  458CH4    CH4  458   1.170   0.103   7.717  0.1167 -0.2230 -0.1241
  459CH4    CH4  459   1.604   1.818   8.559 -0.1449  0.0348 -0.0859
  460CH4    CH4  460   1.667   3.502   8.218  0.0559 -0.5579 -0.7583
  461CH4    CH4  461   0.977   1.861   8.348  0.0325  0.4141 -0.0780
  462CH4    CH4  462   1.436   3.474   7.198 -0.2651  0.1952  0.0449
  463CH4    CH4  463   1.989   2.449   8.676 -0.3636  0.4129  0.1503
  464CH4    CH4  464   3.279   1.098   7.716  0.3019 -0.2554 -0.0018
  465CH4    CH4  465   0.467   2.578   8.686 -0.4146 -0.5220 -0.0293
  466CH4    CH4  466   2.478   0.192   7.523  0.5205  0.4395 -0.2489
  467CH4    CH4  467   0.345   2.699   5.261 -0.1628  0.2000  0.0232
  468CH4    CH4  468   1.644   1.261   8.758 -0.1063 -0.1372 -0.1842
  469CH4    CH4  469   0.808   3.525   7.290 -0.2516 -0.4112 -0.2274
  470CH4    CH4  470   1.299   3.199   6.958 -0.1057 -0.0334 -0.3977
  471CH4    CH4  471   1.844   0.747   8.142  0.0529  0.1776  0.1963
  472CH4    CH4  472   2.655   3.009   8.384 -0.2750 -0.1173 -0.4317
  473CH4    CH4  473   0.421   0.647   8.686  0.2182  0.1476  0.0561
  474CH4    CH4  474   1.364   0.066   7.016 -0.0816  0.1583 -0.4356
  475CH4    CH4  475   0.785   0.947   8.429  0.2959 -0.1801 -0.2772
  476CH4    CH4  476   2.816   2.372   8.931  0.7556 -0.1320 -0.0892
  477CH4    CH4  477   1.434   2.801   8.214  0.0993 -0.1491  0.1017
  478CH4    CH4  478   1.569   1.362   8.405  0.0361  0.0374  0.2643
  479CH4    CH4  479   1.009   2.962   6.141  0.2271 -0.1572 -0.2128
  480CH4    CH4  480   1.732   0.510   9.376  0.1519  0.0498 -0.0134
  481CH4    CH4  481   0.199   0.297   8.837  0.3697  0.1067  0.5595
  482CH4    CH4  482   0.021   1.949   7.411  0.0451  0.1456 -0.1422
  483CH4    CH4  483   3.309   0.039   7.666  0.0771 -0.2268 -0.3149
  484CH4    CH4  484   3.421   2.888   8.734 -0.0561  0.0237  0.1831
  485CH4    CH4  485   0.295   2.228   7.627  0.3580 -0.0057 -0.2416
  486CH4    CH4  486   1.247   0.505   7.819 -0.1898  0.1597  0.3008
  487CH4    CH4  487   3.245   1.704   7.741 -0.4206 -0.3575  0.0966
  488CH4    CH4  488   2.571   0.563   7.531  0.1579  0.2053  0.1563
  489CH4    CH4  489   1.325   2.462   8.394 -0.1589 -0.5626 -0.1073
  490CH4    CH4  490   2.018   0.170   8.504  0.1963  0.0036 -0.1060
  491CH4    CH4  491   1.584   3.225   8.860  0.0856  0.2572  0.2471
  492CH4    CH4  492   0.671   3.545   8.206  0.1806 -0.1438 -0.5079
  493CH4    CH4  493   2.758   0.951   9.805  0.1129 -0.0008  0.1423
  494CH4    CH4  494   2.447   1.723   3.286 -0.0397 -0.0739 -0.0560
  495CH4    CH4  495   3.370   3.229   7.748 -0.3284 -0.2665 -0.1464
  496CH4    CH4  496   0.395   3.225   7.157 -0.4314  0.0443 -0.1937
  497CH4    CH4  497   3.347   2.104   7.519  0.0949  0.1309  0.0322
  498CH4    CH4  498   0.157   2.681   8.441  0.4989 -0.1480  0.3373
  499CH4    CH4  499   3.712   1.134   8.712  0.2560 -0.0174 -0.1093
  500CH4    CH4  500   1.655   0.454   7.889  0.1238  0.2058 -0.2389
   3.80000   3.80000  14.00000
