Methane liquid-vapour slab (united-atom)
  500
    1CH4    CH4    1   3.572   0.775   5.545 -0.2783 -0.0111  0.0799
    2CH4    CH4    2   0.386   2.289   7.329  0.1709  0.2836 -0.0482
    3CH4    CH4    3   3.386   2.056   7.323  0.2682 -0.6662 -0.0539
    4CH4    CH4    4   3.153   0.501   5.634  0.1818  0.2593  0.2369
    5CH4    CH4    5   1.342   2.592   7.488 -0.2933  0.4715 -0.1008
    6CH4    CH4    6   3.753   3.221   5.346  0.1748  0.0241 -0.3779
    7CH4    CH4    7   2.827   1.578   5.945  0.0414  0.2170  0.4296
    8CH4    CH4    8   0.283   1.035   7.291  0.1436  0.1134  0.0901
    9CH4    CH4    9   1.911   0.397   6.833  0.1268 -0.1363  0.3008
   10CH4    CH4   10   0.354   1.132   5.976 -0.2928  0.0348  0.3167
   11CH4    CH4   11   0.527   3.598   9.856  0.0697  0.1249  0.1695
   12CH4    CH4   12   2.763   2.583   7.591 -0.0281  0.3436 -0.1400
   13CH4    CH4   13   2.790   0.548   7.303 -0.0660 -0.2236 -0.3562
   14CH4    CH4   14   0.392   0.366   6.353  0.1978  0.1609 -0.1904
   15CH4    CH4   15   3.274   2.728   6.215  0.0489 -0.3213 -0.2690
   16CH4    CH4   16   3.796   1.885   4.070 -0.3419  0.1579  0.1338
   17CH4    CH4   17   0.512   1.326   5.671 -0.2296 -0.3746  0.2503
   18CH4    CH4   18   2.679   0.002   5.454  0.1161 -0.1536  0.6788
   19CH4    CH4   19   0.047   2.001   6.216 -0.1593 -0.2355 -0.0129
   20CH4    CH4   20   3.233   1.249   6.714  0.0797 -0.7355  0.1630
   21CH4    CH4   21   3.158   2.258   6.127 -0.1183 -0.0371  0.1513
   22CH4    CH4   22   0.823   3.333   6.848  0.1506  0.2819  0.1683
   23CH4    CH4   23   2.221   2.428   6.628 -0.0325  0.0053  0.1509
   24CH4    CH4   24   3.205   3.038   6.469  0.0047  0.0878 -0.2759
   25CH4    CH4   25   0.147   3.319   7.270 -0.0585  0.2673 -0.3009
   26CH4    CH4   26   1.961   3.106   6.416 -0.1699  0.1669 -0.2623
   27CH4    CH4   27   1.578   2.365   1.965 -0.1383  0.1417 -0.0615
   28CH4    CH4   28   2.999   0.128   6.090 -0.0675  0.1210 -0.4025
   29CH4    CH4   29   1.101   1.859   6.742 -0.1377  0.2156 -0.2691
   30CH4    CH4   30   3.390   3.652   6.882  0.0734  0.1585 -0.3967
   31CH4    CH4   31   0.401   0.194   7.199  0.2022  0.0451 -0.0171
   32CH4    CH4   32   2.591   3.384   6.026 -0.6621  0.3066  0.3468
   33CH4    CH4   33   2.895   1.456   7.374  0.1720  0.2009 -0.1091
   34CH4    CH4   34   2.592   3.384   6.833  0.1869  0.0347 -0.3699
   35CH4    CH4   35   2.844   1.490   6.961  0.2295  0.0308 -0.1231
   36CH4    CH4   36   1.691   0.286   7.324  0.1500 -0.0489  0.3829
   37CH4    CH4   37   0.346   2.413   1.755 -0.0657  0.3719  0.3566
   38CH4    CH4   38   1.053   0.699  11.545  0.2062 -0.0269  0.1790
   39CH4    CH4   39   0.113   3.356   7.787  0.1216 -0.3058 -0.4386
   40CH4    CH4   40   3.613   1.750   7.381 -0.1966 -0.0389 -0.4489
   41CH4    CH4   41   0.290   1.818   5.543 -0.0048 -0.0458  0.0189
   42CH4    CH4   42   1.653   3.311   6.557 -0.2728  0.0576 -0.2317
   43CH4    CH4   43   0.712   1.957   7.381 -0.0864  0.1498 -0.1983
   44CH4    CH4   44   0.784   0.661   6.732  0.0746 -0.1592 -0.0305
   45CH4    CH4   45   2.607   1.761   6.240 -0.2637  0.0048  0.4468
   46CH4    CH4   46   3.311   0.328   6.819 -0.0698  0.2002  0.1634
   47CH4    CH4   47   3.480   1.198   4.749 -0.0992  0.1411 -0.0796
   48CH4    CH4   48   0.896   2.314   7.419  0.1987  0.0971  0.1475
   49CH4    CH4   49   2.525   1.104   7.029  0.5129  0.4300 -0.0521
   50CH4    CH4   50   2.180   0.282   6.127  0.4067  0.0130  0.2205
   51CH4    CH4   51   0.891   2.957   6.631 -0.0577 -0.4250  0.0356
   52CH4    CH4   52   1.307   2.267   6.225  0.1837 -0.1623 -0.2352
   53CH4    CH4   53   2.057   0.268  12.005  0.1721 -0.4094 -0.0028
   54CH4    CH4   54   2.331   3.358   6.470 -0.2091 -0.0195 -0.1175
   55CH4    CH4   55   1.207   0.524   6.646  0.1034 -0.2715  0.2830
   56CH4    CH4   56   1.684   0.413   6.494 -0.2738  0.1246  0.0821
   57CH4    CH4   57   2.888   0.542   6.097 -0.1319 -0.2103  0.0954
   58CH4    CH4   58   3.152   0.072   8.064  0.0139 -0.2210 -0.2888
   59CH4    CH4   59   1.524   2.860   7.271  0.0751 -0.0437  0.2767
   60CH4    CH4   60   2.870   2.293   6.977  0.1673 -0.0744  0.0641
   61CH4    CH4   61   0.358   3.412   6.866  0.2178  0.2103  0.2401
   62CH4    CH4   62   2.242   1.752   5.998  0.1879 -0.0736  0.3043
   63CH4    CH4   63   1.221   0.394   5.659 -0.0222 -0.0664 -0.0022
   64CH4    CH4   64   1.749   1.942   5.775  0.1932 -0.1145  0.0840
   65CH4    CH4   65   0.426   1.979   7.010 -0.2449 -0.5894 -0.4952
   66CH4    CH4   66   0.312   0.134   5.797  0.1558  0.6025  0.3173
   67CH4    CH4   67   2.192   3.666   6.170  0.4031 -0.0782  0.3031
   68CH4    CH4   68   1.322   3.591   6.255  0.0031 -0.8518 -0.0891
   69CH4    CH4   69   2.603   2.653   6.727  0.2914 -0.3743  0.0691
   70CH4    CH4   70   2.448   2.087   7.440  0.4014 -0.8002  0.3009
   71CH4    CH4   71   0.265   3.579   6.009  0.1619 -0.4496 -0.2307
   72CH4    CH4   72   1.100   3.272   5.584  0.4013 -0.5128  0.0972
   73CH4    CH4   73   2.812   3.442   5.038  0.1430 -0.0707 -0.0491
   74CH4    CH4   74   2.411   0.895   7.814 -0.2409  0.0511 -0.1851
   75CH4    CH4   75   0.438   2.471   6.990 -0.2296 -0.0876  0.0820
   76CH4    CH4   76   1.522   0.339   6.907  0.1223  0.0238 -0.2876
   77CH4    CH4   77   0.656   3.275   5.594 -0.0035 -0.1558  0.3060
   78CH4    CH4   78   0.690   2.823   6.226 -0.0239 -0.3252 -0.1081
   79CH4    CH4   79   3.405   2.414   6.413 -0.0947 -0.3908  0.2701
   80CH4    CH4   80   0.573   3.176   6.467 -0.2993  0.1704  0.2953
   81CH4    CH4   81   2.599   0.297   8.556  0.0026  0.3480 -0.5182
   82CH4    CH4   82   0.128   2.897   6.445  0.1662 -0.2449  0.2274
   83CH4    CH4   83   2.587   1.677   7.402 -0.2392  0.3519  0.2528
   84CH4    CH4   84   0.339   3.520   8.107 -0.2002 -0.0161  0.0089
   85CH4    CH4   85   2.309   0.045   5.841  0.1392 -0.2030  0.2349
   86CH4    CH4   86   3.217   3.376   7.445  0.1851  0.1520 -0.1673
   87CH4    CH4   87   1.618   2.479  10.905 -0.1527  0.0933  0.1294
   88CH4    CH4   88   1.205   2.891   1.451  0.0267  0.7329  0.4576
   89CH4    CH4   89   2.852   1.157   6.518  0.1664 -0.0726 -0.2280
   90CH4    CH4   90   3.616   1.354   6.630 -0.4120 -0.0548 -0.0601
   91CH4    CH4   91   2.682   2.996   6.892  0.2988  0.0634 -0.2567
   92CH4    CH4   92   2.052   1.771   5.289 -0.3967  0.0288  0.0863
   93CH4    CH4   93   0.932   0.420   5.344 -0.3303  0.3496  0.2136
   94CH4    CH4   94   1.845   1.046   5.926  0.1212  0.1989 -0.3522
   95CH4    CH4   95   0.991   0.515   7.437 -0.3370  0.0378 -0.2665
   96CH4    CH4   96   0.393   1.557  12.373 -0.1190  0.6314 -0.1057
   97CH4    CH4   97   0.821   3.142   7.465  0.2497  0.4946  0.3333
   98CH4    CH4   98   3.464   1.869   6.790 -0.1605 -0.0895  0.0394
   99CH4    CH4   99   1.745   3.551   6.223 -0.0540  0.1167  0.2417
  100CH4    CH4  100   2.475   2.272   5.663 -0.1269  0.1829  0.2920
  101CH4    CH4  101   3.106   2.490   6.661 -0.1674 -0.4026  0.2011
  102CH4    CH4  102   0.935   2.603   5.379 -0.2267  0.4143  0.1570
  103CH4    CH4  103   2.245   2.903   5.606  0.3869  0.2232 -0.0110
  104CH4    CH4  104   3.399   2.157   2.410 -0.0807 -0.1962 -0.0061
  105CH4    CH4  105   1.087   2.478   6.613 -0.3759 -0.2071  0.3707
  106CH4    CH4  106   1.757   2.317   6.114 -0.4864 -0.2310  0.0175
  107CH4    CH4  107   2.715   0.802   8.517  0.1327  0.1458  0.4038
  108CH4    CH4  108   2.492   0.393   7.107 -0.0788  0.0975  0.2752
  109CH4    CH4  109   2.129   2.876   6.711  0.4708 -0.0303 -0.1897
  110CH4    CH4  110   2.640   2.548   4.398  0.0515  0.3208 -0.3661
  111CH4    CH4  111   1.323   0.061   6.673 -0.0717  0.0470 -0.2881
  112CH4    CH4  112   3.755   2.588   6.323 -0.1087  0.1061  0.0014
  113CH4    CH4  113   3.262   2.485   2.176 -0.3768 -0.0556 -0.2507
  114CH4    CH4  114   3.171   0.052   6.441  0.1808  0.2968  0.5674
  115CH4    CH4  115   2.449   0.304   5.545  0.1007 -0.0026 -0.1733
  116CH4    CH4  116   1.427   0.550   5.089 -0.0364  0.3360 -0.2372
  117CH4    CH4  117   0.028   1.330   7.431 -0.0331 -0.0878  0.1959
  118CH4    CH4  118   1.735   1.355   7.244  0.7751  0.2695 -0.1559
  119CH4    CH4  119   2.691   0.700   5.793  0.0677 -0.4269  0.1807
  120CH4    CH4  120   3.399   0.058   6.079  0.3494  0.1136 -0.3952
  121CH4    CH4  121   1.225   1.494   5.922 -0.4535 -0.4114  0.5063
  122CH4    CH4  122   1.595   2.935   6.556  0.0397 -0.1345  0.1060
  123CH4    CH4  123   2.201   0.098   7.190  0.0677  0.1987 -0.1043
  124CH4    CH4  124   0.138   0.874   6.513  0.0420  0.2612 -0.1714
  125CH4    CH4  125   1.472   2.574   6.433  0.0685 -0.3589 -0.2173
  126CH4    CH4  126   3.231   3.660   4.998 -0.3118  0.5347 -0.3601
  127CH4    CH4  127   1.776   3.657   7.164 -0.0809  0.1369 -0.4089
  128CH4    CH4  128   2.464   0.630   2.218  0.1366  0.1320 -0.1157
  129CH4    CH4  129   2.222   3.315   7.827  0.3462  0.1227 -0.3445
  130CH4    CH4  130   0.602   2.504  13.916 -0.2350  0.2048 -0.4571
  131CH4    CH4  131   0.654   0.306   5.617  0.2039  0.2950 -0.0163
  132CH4    CH4  132   2.190   2.035   5.719 -0.0422 -0.0742 -0.3472
  133CH4    CH4  133   1.285   0.163  13.832  0.0507  0.3561  0.0267
  134CH4    CH4  134   0.668   3.534   6.194  0.2957  0.1776 -0.0557
  135CH4    CH4  135   1.588   3.059   6.925  0.0327 -0.0409  0.5195
  136CH4    CH4  136   0.695   0.879   3.272 -0.0777  0.1498 -0.1272
  137CH4    CH4  137   0.024   0.368   7.405  0.1322 -0.2693  0.0597
  138CH4    CH4  138   2.853   2.811   6.404 -0.4675 -0.0378  0.0743
  139CH4    CH4  139   1.072   0.004   7.248  0.3710 -0.0793 -0.1043
  140CH4    CH4  140   2.356   2.888   7.135  0.1669  0.1802  0.3889
  141CH4    CH4  141   2.472   2.714   6.327  0.0357 -0.2213 -0.0384
  142CH4    CH4  142   1.121   0.888   6.804 -0.1719 -0.2522 -0.0975
  143CH4    CH4  143   1.236   0.134   0.296 -0.3363 -0.0895 -0.2241
  144CH4    CH4  144   0.800   2.248   5.986 -0.0553 -0.1322 -0.4168
  145CH4    CH4  145   3.761   2.556   5.546  0.2347 -0.1046  0.0500
  146CH4    CH4  146   3.538   3.304   7.114 -0.0454 -0.1330 -0.0403
  147CH4    CH4  147   0.700   1.830   6.710  0.3655  0.0119  0.2994
  148CH4    CH4  148   1.355   0.729   5.474 -0.1949 -0.1508 -0.1406
  149CH4    CH4  149   2.157   0.771   6.136  0.0365 -0.2755 -0.1845
  150CH4    CH4  150   0.964   3.683   6.362  0.0755  0.0265 -0.6036
  151CH4    CH4  151   1.959   2.799   6.064  0.0486 -0.2070  0.1482
  152CH4    CH4  152   2.139   1.927   6.753  0.0760 -0.0634  0.2883
  153CH4    CH4  153   0.569   3.624   5.706 -0.4085  0.1462 -0.5852
  154CH4    CH4  154   3.276   1.394   6.294 -0.0196  0.3321  0.5522
  155CH4    CH4  155   2.487   3.277   5.622  0.4000 -0.0809 -0.2004
  156CH4    CH4  156   0.606   3.613   7.289 -0.0426  0.5426 -0.1850
  157CH4    CH4  157   1.295   3.749   5.890  0.5373  0.0591  0.2505
  158CH4    CH4  158   1.807   0.861   6.428  0.0880  0.0410 -0.1793
  159CH4    CH4  159   1.907   0.816   6.837 -0.6671 -0.6706  0.1241
  160CH4    CH4  160   2.579   1.359   6.242  0.4755  0.0356 -0.1222
  161CH4    CH4  161   3.209   2.634   5.359  0.3509 -0.5872 -0.2571
  162CH4    CH4  162   2.263   1.711   2.598 -0.1885 -0.0993  0.0206
  163CH4    CH4  163   1.804   0.947   7.494  0.2240  0.4411  0.1892
  164CH4    CH4  164   0.869   2.616   6.917 -0.5329  0.1581  0.2965
  165CH4    CH4  165   0.146   0.176   6.676  0.2733  0.2832  0.4532
  166CH4    CH4  166   3.275   3.306   5.591 -0.0712 -0.0757  0.0767
  167CH4    CH4  167   2.501   0.485   6.504 -0.3757 -0.1560  0.3453
  168CH4    CH4  168   0.659   0.800   5.864  0.0045  0.1644  0.4653
  169CH4    CH4  169   3.578   2.318   6.837 -0.1338 -0.2924 -0.2514
  170CH4    CH4  170   1.422   3.370   4.520  0.4386  0.1164 -0.2674
  171CH4    CH4  171   2.162   0.609  12.397 -0.1371 -0.0762  0.2335
  172CH4    CH4  172   3.784   3.763   7.820  0.1842  0.3368 -0.1038
  173CH4    CH4  173   0.975   2.652   7.681 -0.0706 -0.2152 -0.1725
  174CH4    CH4  174   1.652   2.664   5.591  0.0667  0.4213 -0.0242
  175CH4    CH4  175   3.476   0.288  12.340 -0.2705  0.0263 -0.6454
  176CH4    CH4  176   2.452   1.264   6.575 -0.1091 -0.2257 -0.1085
  177CH4    CH4  177   3.535   1.249   5.746  0.1948 -0.3177 -0.0590
  178CH4    CH4  178   1.459   1.197   5.734 -0.2842  0.4504 -0.0244
  179CH4    CH4  179   0.712   0.509   9.781 -0.0891  0.0418  0.1081
  180CH4    CH4  180   0.911   2.056   6.377 -0.3600 -0.5711  0.0472
  181CH4    CH4  181   3.582   1.024   7.427  0.4410  0.1141 -0.0219
  182CH4    CH4  182   3.484   1.102   6.977 -0.1948  0.6327  0.0075
  183CH4    CH4  183   3.309   1.595   6.617  0.1278 -0.2310  0.0212
  184CH4    CH4  184   0.094   1.091   4.680 -0.0509 -0.2518 -0.0273
  185CH4    CH4  185   0.891   2.918   4.674 -0.0377 -0.3945  0.1502
  186CH4    CH4  186   1.738   1.440   5.891  0.2555 -0.0991 -0.1379
  187CH4    CH4  187   2.997   1.701   6.312 -0.1629 -0.2163 -0.2261
  188CH4    CH4  188   0.176   2.803   6.056 -0.7844  0.0570 -0.0368
  189CH4    CH4  189   2.763   2.113   6.204  0.0101 -0.1912 -0.3415
  190CH4    CH4  190   1.389   0.418   0.519 -0.3225  0.3744 -0.2279
  191CH4    CH4  191   0.843   1.607   6.174 -0.0840  0.2456  0.0036
  192CH4    CH4  192   0.797   1.959   7.910 -0.7198 -0.1965  0.0975
  193CH4    CH4  193   2.152   0.160   2.520  0.1689  0.1324 -0.0583
  194CH4    CH4  194   0.698   0.985   5.485 -0.1606  0.2901 -0.0275
  195CH4    CH4  195   3.043   3.105   6.878 -0.0933 -0.2268 -0.3735
  196CH4    CH4  196   2.360   1.399   4.034 -0.2410 -0.0235  0.0837
  197CH4    CH4  197   2.376   3.055   5.246 -0.2463  0.2968 -0.1579
  198CH4    CH4  198   0.956   0.651   5.665  0.4656 -0.0337 -0.3591
  199CH4    CH4  199   3.004   2.869   8.881  0.3488  0.1080  0.1413
  200CH4    CH4  200   1.123   2.603   8.083 -0.0234  0.0937 -0.1257
  201CH4    CH4  201   0.040   0.836   7.576  0.0377 -0.0345 -0.0528
  202CH4    CH4  202   1.527   0.735   6.749  0.1784  0.0962 -0.0434
  203CH4    CH4  203   2.218   2.549   7.390  0.0122 -0.3633  0.0466
  204CH4    CH4  204   3.204   0.614   5.182 -0.0445 -0.0603  0.0996
  205CH4    CH4  205   3.736   1.226   6.093 -0.0691 -0.1118 -0.3307
  206CH4    CH4  206   1.447   0.003   7.052  0.2165  0.2801  0.4372
  207CH4    CH4  207   1.245   1.508  12.157 -0.1060 -0.0923 -0.2407
  208CH4    CH4  208   0.292   1.563   6.035  0.4265  0.1571  0.2791
  209CH4    CH4  209   1.419   0.585   6.262  0.1241 -0.1074  0.1334
  210CH4    CH4  210   1.793   3.712  11.974 -0.3635 -0.0218  0.0740
  211CH4    CH4  211   3.234   1.178   7.531 -0.0874  0.1998  0.1231
  212CH4    CH4  212   1.763   1.497   9.485  0.4072 -0.0262  0.0545
  213CH4    CH4  213   2.979   1.880   7.315  0.0408 -0.1774  0.1115
  214CH4    CH4  214   2.099   2.375   6.273  0.1001  0.2374  0.2386
  215CH4    CH4  215   3.405   2.715   7.179  0.2160  0.1575  0.3458
  216CH4    CH4  216   3.044   2.601   7.312 -0.3807 -0.1454 -0.3395
  217CH4    CH4  217   0.479   0.298   6.821 -0.1808  0.0914 -0.1092
  218CH4    CH4  218   2.605   1.080   5.794  0.2671  0.2579  0.1145
  219CH4    CH4  219   2.988   3.639   5.848 -0.2540 -0.4906 -0.0360
  220CH4    CH4  220   0.344   3.385   4.738 -0.0517 -0.1109 -0.2536
  221CH4    CH4  221   0.308   2.846   7.714  0.3817 -0.0898  0.2905
  222CH4    CH4  222   1.693   1.455   5.518 -0.2564 -0.4805  0.3222
  223CH4    CH4  223   0.474   1.778   6.392  0.0480  0.1671  0.4060
  224CH4    CH4  224   3.441   0.700   7.606 -0.0944  0.0897  0.3719
  225CH4    CH4  225   0.558   3.151   5.980 -0.7232 -0.1743  0.1527
  226CH4    CH4  226   3.088   3.428   6.662 -0.0030 -0.0632 -0.1822
  227CH4    CH4  227   0.878   0.404   5.992  0.2455 -0.0679 -0.0202
  228CH4    CH4  228   1.468   2.642   6.003  0.0421 -0.0736 -0.2811
  229CH4    CH4  229   0.486   1.908   6.008 -0.3565  0.2254 -0.3610
  230CH4    CH4  230   0.381   3.653   7.762 -0.0278  0.0648  0.2015
  231CH4    CH4  231   1.639   2.395   6.985 -0.1293  0.3947 -0.0643
  232CH4    CH4  232   1.884   2.910   5.365  0.1812 -0.5170  0.0906
  233CH4    CH4  233   2.762   2.972   5.430  0.1445 -0.1168  0.1066
  234CH4    CH4  234   0.940   3.142   3.835 -0.1773  0.1456 -0.2842
  235CH4    CH4  235   2.484   2.328   6.352 -0.2108 -0.1535  0.1842
  236CH4    CH4  236   0.796   3.755   6.911 -0.4654  0.4630  0.0682
  237CH4    CH4  237   3.042   3.460   7.074 -0.0569  0.3030  0.2429
  238CH4    CH4  238   2.041   1.168   6.873  0.0048  0.4920  0.0521
  239CH4    CH4  239   2.834   1.967   5.399  0.1668  0.2840 -0.1920
  240CH4    CH4  240   1.822   3.510  10.993  0.3625 -0.0954  0.0274
  241CH4    CH4  241   3.247   1.725   7.537  0.1839  0.0874 -0.2580
  242CH4    CH4  242   0.246   2.628   6.686 -0.2821  0.0718  0.0805
  243CH4    CH4  243   3.607   3.486   8.127 -0.0954 -0.0822  0.2207
  244CH4    CH4  244   1.905   3.629   6.763 -0.2012 -0.1849 -0.1984
  245CH4    CH4  245   3.186   0.985   6.269 -0.5209 -0.2168 -0.2151
  246CH4    CH4  246   3.107   2.934   5.688  0.1077  0.5731 -0.0738
  247CH4    CH4  247   2.970   0.514   6.861 -0.0756  0.2069 -0.2474
  248CH4    CH4  248   3.728   2.931   7.356  0.2172 -0.1378 -0.1906
  249CH4    CH4  249   2.597   0.824   6.752 -0.3672 -0.2604  0.3275
  250CH4    CH4  250   2.560   2.645   5.498 -0.0117 -0.1512 -0.1404
  251CH4    CH4  251   2.329   2.604   3.985  0.1677  0.5916 -0.0452
  252CH4    CH4  252   1.131   2.405   7.153  0.1931  0.1403  0.0014
  253CH4    CH4  253   2.486   0.472   7.688  0.0894  0.0017  0.6877
  254CH4    CH4  254   1.112   1.862   5.945  0.2551  0.0972  0.3066
  255CH4    CH4  255   1.387   1.090   6.124  0.0160  0.1234 -0.3235
  256CH4    CH4  256   2.549   2.502   7.188 -0.2789  0.1419  0.0128
  257CH4    CH4  257   2.246   0.683   5.754 -0.0308  0.3098  0.4586
  258CH4    CH4  258   2.837   0.283   6.439 -0.1052 -0.1744 -0.0331
  259CH4    CH4  259   1.396   3.411   7.039  0.3820  0.3573  0.3707
  260CH4    CH4  260   0.879   2.724   5.914  0.0900  0.1628  0.3431
  261CH4    CH4  261   3.043   2.494   2.522 -0.4770 -0.2672  0.0258
  262CH4    CH4  262   3.498   2.778   6.534  0.0889 -0.2609  0.1366
  263CH4    CH4  263   0.134   3.306   6.244  0.3333  0.1761 -0.3498
  264CH4    CH4  264   3.315   2.273   1.668  0.0970  0.1949 -0.1838
  265CH4    CH4  265   0.876   0.032   5.767  0.0193  0.0423 -0.0839
  266CH4    CH4  266   2.848   3.085   6.142  0.1482 -0.1563 -0.0880
  267CH4    CH4  267   0.111   3.695   6.959 -0.1296  0.5186 -0.0060
  268CH4    CH4  268   1.551   1.860   6.944 -0.0980 -0.3621 -0.3409
  269CH4    CH4  269   2.128   1.359   6.189 -0.0860 -0.2919  0.3957
  270CH4    CH4  270   2.194   1.709   7.607 -0.2148 -0.2155 -0.3455
  271CH4    CH4  271   1.664   1.954   7.301 -0.2510  0.0876  0.2642
  272CH4    CH4  272   0.686   2.672   7.348 -0.0948 -0.1279  0.1705
  273CH4    CH4  273   2.788   0.315   5.779 -0.2246  0.0510  0.0543
  274CH4    CH4  274   1.509   0.269   6.013  0.0884 -0.3463  0.2918
  275CH4    CH4  275   2.356   2.173   6.011  0.0551  0.0119 -0.1652
  276CH4    CH4  276   3.262   3.628   8.374  0.0245  0.1180 -0.2312
  277CH4    CH4  277   0.205   0.237   7.768  0.5568 -0.0791  0.1138
  278CH4    CH4  278   3.276   1.501   7.202  0.4043 -0.2550 -0.2128
  279CH4    CH4  279   0.940   3.764  13.962 -0.2599 -0.0953 -0.3220
  280CH4    CH4  280   0.090   2.286   6.529 -0.1830 -0.0653  0.2506
  281CH4    CH4  281   2.024   1.590   6.559 -0.3288 -0.4617  0.1778
  282CH4    CH4  282   2.397   1.024   8.819 -0.3181 -0.1526 -0.0766
  283CH4    CH4  283   0.462   0.229   2.133  0.2381  0.1600 -0.3243
  284CH4    CH4  284   0.539   3.735   6.685  0.3764 -0.0060 -0.3459
  285CH4    CH4  285   3.785   3.617   6.574 -0.2273  0.0388  0.1580
  286CH4    CH4  286   1.553   3.020   6.188  0.3327  0.1043 -0.3308
  287CH4    CH4  287   3.584   0.205   6.402 -0.0680 -0.0435 -0.1426
  288CH4    CH4  288   2.846   1.361   5.563  0.2093 -0.0082  0.1380
  289CH4    CH4  289   2.315   2.551   5.942 -0.7520  0.1861  0.1997
  290CH4    CH4  290   0.647   2.393   1.469  0.3660 -0.2928  0.0283
  291CH4    CH4  291   1.357   2.500   3.222  0.2772 -0.1376 -0.0622
  292CH4    CH4  292   1.026   1.996   7.141 -0.2957  0.1856 -0.0787
  293CH4    CH4  293   0.111   1.274   5.652  0.0571  0.0525  0.3920
  294CH4    CH4  294   1.603   0.694   7.727  0.3738  0.2738 -0.0208
  295CH4    CH4  295   3.532   0.851   6.613  0.0146  0.2248  0.0445
  296CH4    CH4  296   3.139   1.913   5.918 -0.2222  0.1137  0.0740
  297CH4    CH4  297   0.078   3.196  12.688 -0.4713  0.4216 -0.3996
  298CH4    CH4  298   3.321   3.173   5.992  0.2836 -0.0514 -0.3384
  299CH4    CH4  299   0.896   3.218   5.217 -0.2801 -0.0224  0.1475
  300CH4    CH4  300   3.487   1.530   7.916 -0.2033  0.2679  0.2243
  301CH4    CH4  301   3.627   0.132   7.088 -0.0215  0.1833 -0.0809
  302CH4    CH4  302   1.868   2.421   6.620 -0.1688 -0.4704  0.1955
  303CH4    CH4  303   2.965   2.641   3.577 -0.2590  0.3776 -0.0962
  304CH4    CH4  304   0.380   2.554   6.313  0.2132  0.0874 -0.0753
  305CH4    CH4  305   0.189   2.983   5.693 -0.0242 -0.2399 -0.0553
  306CH4    CH4  306   1.846   0.510   6.119 -0.4037 -0.0963  0.1565
  307CH4    CH4  307   2.155   1.031   6.499 -0.6390  0.0599  0.2874
  308CH4    CH4  308   2.772   2.009   5.834 -0.1180  0.3860 -0.1872
  309CH4    CH4  309   1.103   0.286   6.965 -0.2006 -0.2223  0.4781
  310CH4    CH4  310   1.421   3.627   1.026  0.3581 -0.0051  0.5282
  311CH4    CH4  311   1.188   0.630   7.096 -0.4194 -0.4393  0.0605
  312CH4    CH4  312   0.712   2.438   6.503  0.3076  0.0485  0.2894
  313CH4    CH4  313   3.372   3.668   7.775 -0.2146  0.4968  0.3207
  314CH4    CH4  314   2.916   1.900   6.845  0.1078 -0.1625  0.2899
  315CH4    CH4  315   1.331   1.306   6.642  0.0234 -0.1131  0.1741
  316CH4    CH4  316   0.978   1.355   6.458  0.3996 -0.0583 -0.5085
  317CH4    CH4  317   3.427   0.692   6.963 -0.0877  0.0193 -0.0787
  318CH4    CH4  318   0.760   2.192   6.944 -0.2976  0.0231  0.1922
  319CH4    CH4  319   3.556   0.851   5.065  0.2718 -0.0324 -0.0263
  320CH4    CH4  320   0.003   3.755   5.724 -0.1034  0.3729 -0.3007
  321CH4    CH4  321   1.440   1.003   4.953 -0.4886 -0.0192  0.2686
  322CH4    CH4  322   1.260   3.250   6.026 -0.1521 -0.1378  0.2446
  323CH4    CH4  323   2.969   3.772   6.831  0.1771  0.0323 -0.1759
  324CH4    CH4  324   0.407   1.010   6.859  0.1192  0.3601 -0.0244
  325CH4    CH4  325   1.108   2.872   7.178  0.1803  0.0074 -0.3315
  326CH4    CH4  326   1.353   2.230   7.645  0.3258 -0.1521 -0.1585
  327CH4    CH4  327   3.254   3.098  13.384  0.2562 -0.1450  0.2815
  328CH4    CH4  328   1.143   1.606   7.176  0.0397  0.0608 -0.0513
  329CH4    CH4  329   0.806   1.983   4.735  0.0540 -0.0575 -0.5067
  330CH4    CH4  330   2.267   1.286   9.471  0.2373  0.2272  0.2113
  331CH4    CH4  331   3.597   3.265   6.513 -0.0355 -0.1561 -0.0771
  332CH4    CH4  332   1.228   0.214   6.282 -0.0883 -0.0965  0.3621
  333CH4    CH4  333   0.351   2.786  12.444 -0.0729  0.2275  0.2673
  334CH4    CH4  334   2.688   2.833   5.856  0.1738 -0.3036 -0.0652
  335CH4    CH4  335   1.051   1.279   6.905  0.1403  0.2855  0.0577
  336CH4    CH4  336   2.787   0.910   7.519 -0.1467 -0.0088  0.2272
  337CH4    CH4  337   1.199   2.491   1.870 -0.4310 -0.2255  0.2867
  338CH4    CH4  338   2.692   3.508   6.395  0.0705 -0.1977 -0.2463
  339CH4    CH4  339   0.419   2.966   6.804 -0.1440 -0.5432  0.1307
  340CH4    CH4  340   3.653   0.522   6.222  0.3551 -0.0901  0.4221
  341CH4    CH4  341   0.906   2.066   5.673 -0.1521 -0.2128  0.0637
  342CH4    CH4  342   1.340   0.484   0.108  0.0345 -0.0163  0.0850
  343CH4    CH4  343   0.508   3.149   8.744  0.1791 -0.0888 -0.3863
  344CH4    CH4  344   1.980   0.705   7.183  0.4334 -0.1158  0.1636
  345CH4    CH4  345   2.292   0.578   6.828  0.0462 -0.0190 -0.0362
  346CH4    CH4  346   0.313   3.682   6.365  0.3725 -0.0008 -0.1422
  347CH4    CH4  347   1.353   1.686   6.413  0.3110 -0.2101 -0.1808
  348CH4    CH4  348   1.970   2.387   5.759 -0.2021  0.2979 -0.1317
  349CH4    CH4  349   1.167   0.915   6.410  0.1533 -0.2840 -0.5607
  350CH4    CH4  350   3.694   1.136   5.334  0.1717 -0.0999  0.0485
  351CH4    CH4  351   0.098   3.735   7.362  0.1418 -0.0196  0.3739
  352CH4    CH4  352   1.179   3.118   6.810  0.1725 -0.0895  0.2448
  353CH4    CH4  353   2.654   2.011   7.143  0.4368  0.1232  0.0393
  354CH4    CH4  354   2.433   0.687   3.073 -0.2167 -0.0919  0.3062
  355CH4    CH4  355   0.175   0.781   5.228 -0.0919 -0.0819 -0.2039
  356CH4    CH4  356   0.477   2.130   6.520 -0.3338 -0.3631  0.6902
  357CH4    CH4  357   2.455   2.226   6.871 -0.6029 -0.2169 -0.1725
  358CH4    CH4  358   2.954   0.692   6.494 -0.2792  0.6879 -0.3400
  359CH4    CH4  359   0.594   2.332   7.848  0.3155 -0.0410 -0.1608
  360CH4    CH4  360   0.777   0.802   6.334 -0.2088  0.4454  0.2755
  361CH4    CH4  361   3.164   3.004   7.258  0.3948 -0.2159  0.2277
  362CH4    CH4  362   3.658   0.139   8.168  0.2833  0.5673  0.0279
  363CH4    CH4  363   1.648   1.372   6.307 -0.0209  0.4493 -0.0435
  364CH4    CH4  364   2.563   1.400   4.412 -0.1997 -0.2641 -0.1069
  365CH4    CH4  365   3.635   3.002   6.880 -0.1114 -0.1805  0.1971
  366CH4    CH4  366   0.749   2.984   7.057  0.3210 -0.1238 -0.0231
  367CH4    CH4  367   3.298   1.036   5.384 -0.0457 -0.2073 -0.0964
  368CH4    CH4  368   0.809   2.732   1.304  0.1561  0.5094  0.1212
  369CH4    CH4  369   2.572   0.064   6.258  0.0456 -0.0805 -0.2661
  370CH4    CH4  370   1.783   1.420   7.615 -0.3031  0.0358  0.3872
  371CH4    CH4  371   2.373   1.049   8.255 -0.0455  0.0319 -0.0968
  372CH4    CH4  372   0.023   2.213   7.210 -0.0637  0.1798  0.2297
  373CH4    CH4  373   1.564   0.658   7.157 -0.1723 -0.0482  0.6134
  374CH4    CH4  374   2.884   0.943   5.483 -0.1129 -0.1855  0.0967
  375CH4    CH4  375   1.308   0.252   7.368  0.2792  0.0347  0.0830
  376CH4    CH4  376   0.951   3.253   6.268 -0.5933 -0.3932  0.2177
  377CH4    CH4  377   2.451   0.554   6.050  0.4338  0.3640 -0.4376
  378CH4    CH4  378   2.710   1.557   6.575  0.2253  0.0927  0.1878
  379CH4    CH4  379   2.422   0.988   7.457 -0.0652 -0.1128 -0.1975
  380CH4    CH4  380   2.785   3.164   6.560  0.0498 -0.1507 -0.3745
  381CH4    CH4  381   2.775   2.201   6.579 -0.4028 -0.2913  0.0296
  382CH4    CH4  382   0.451   3.099   7.364  0.0442 -0.2869 -0.0995
  383CH4    CH4  383   1.741   3.186   7.272  0.3095 -0.3752 -0.1319
  384CH4    CH4  384   3.284   0.219   7.679  0.3365  0.3205  0.0132
  385CH4    CH4  385   2.747   2.729   4.025  0.3789 -0.1759 -0.0821
  386CH4    CH4  386   0.423   1.819   8.008 -0.3575  0.1727 -0.1087
  387CH4    CH4  387   3.607   1.671   6.243  0.0071 -0.2707 -0.3759
  388CH4    CH4  388   1.421   1.729   5.650  0.0258  0.1464 -0.1249
  389CH4    CH4  389   1.993   0.362   5.765  0.1032 -0.4556 -0.2015
  390CH4    CH4  390   0.167   1.602   6.523 -0.1685 -0.2416  0.1589
  391CH4    CH4  391   2.493   1.958   6.557  0.2849 -0.3933  0.2108
  392CH4    CH4  392   1.463   3.779   7.664 -0.0159  0.1176  0.3066
  393CH4    CH4  393   2.007   1.664   5.675 -0.2765 -0.0858 -0.2346
  394CH4    CH4  394   2.331   2.039   5.304 -0.0516  0.4201  0.1206
  395CH4    CH4  395   3.592   3.430   7.514  0.3478 -0.1228  0.0650
  396CH4    CH4  396   3.319   3.403  11.098  0.0872  0.0352 -0.1147
  397CH4    CH4  397   0.324   0.496   5.972  0.1636 -0.0871 -0.1682
  398CH4    CH4  398   1.207   0.748   5.992  0.1775  0.1028  0.2300
  399CH4    CH4  399   3.280   0.396   7.277 -0.0713  0.0896 -0.1070
  400CH4    CH4  400   3.414   3.595   6.368  0.1218 -0.2204  0.2360
  401CH4    CH4  401   2.513   3.617   7.378  0.0975  0.2540 -0.2514
  402CH4    CH4  402   1.569   0.690   5.905 -0.1627 -0.3508 -0.1436
  403CH4    CH4  403   2.259   3.627   6.720 -0.0763 -0.1708  0.1025
  404CH4    CH4  404   2.948   1.133   7.184  0.2111 -0.0707 -0.0830
  405CH4    CH4  405   0.431   0.658   7.064  0.1667 -0.3740 -0.0828
  406CH4    CH4  406   2.187   3.542   7.134 -0.1175  0.1113  0.3211
  407CH4    CH4  407   2.154   2.906   7.776 -0.1387  0.5677  0.1567
  408CH4    CH4  408   2.183   1.051   5.611 -0.1564  0.1675 -0.3061
  409CH4    CH4  409   3.554   2.978   5.700  0.2784  0.2363 -0.6266
  410CH4    CH4  410   1.860   1.043   3.991  0.4817  0.0234  0.3081
  411CH4    CH4  411   1.431   1.138   7.000 -0.6504  0.0103 -0.3679
  412CH4    CH4  412   2.234   1.874   7.154  0.0680 -0.1566  0.5628
  413CH4    CH4  413   2.928   2.706   6.968  0.2096  0.2421  0.1007
  414CH4    CH4  414   1.994   2.202   7.048 -0.3379  0.2745 -0.4152
  415CH4    CH4  415   0.919   3.472   5.878 -0.1641  0.2158 -0.0050
  416CH4    CH4  416   0.692   1.198   7.206 -0.0473 -0.1015  0.0799
  417CH4    CH4  417   1.019   3.545   7.719 -0.1581  0.1084  0.4001
  418CH4    CH4  418   1.710   1.382   6.750  0.5115 -0.1941 -0.3566
  419CH4    CH4  419   2.968   2.139  12.059  0.1854  0.0521 -0.0863
  420CH4    CH4  420   2.250   0.257   6.673 -0.1246  0.2554 -0.1204
  421CH4    CH4  421   2.757   2.487   6.089  0.1315 -0.0451 -0.4593
  422CH4    CH4  422   2.855   0.031   7.229  0.3965  0.0750  0.1283
  423CH4    CH4  423   1.939   3.192   5.985 -0.6569 -0.0161 -0.2769
  424CH4    CH4  424   3.456   1.620   5.843 -0.6672 -0.0861  0.4040
  425CH4    CH4  425   0.108   0.370   7.041 -0.1131  0.3071  0.0909
  426CH4    CH4  426   3.067   0.531   7.693 -0.0419 -0.4090  0.1904
  427CH4    CH4  427   0.564   0.092   6.077 -0.1984  0.2355 -0.7353
  428CH4    CH4  428   3.265   3.757   7.289  0.1483  0.0348  0.2634
  429CH4    CH4  429   2.345   1.764   8.513  0.1236 -0.1996 -0.3853
  430CH4    CH4  430   1.195   1.287   5.451 -0.3241 -0.0714 -0.4395
  431CH4    CH4  431   1.156   3.481   6.736  0.0775 -0.1366 -0.4730
  432CH4    CH4  432   3.450   0.889   5.983  0.1464 -0.0096 -0.0951
  433CH4    CH4  433   3.780   2.626   8.015 -0.1028  0.3433 -0.5572
  434CH4    CH4  434   0.211   2.715  11.575 -0.0082  0.0240 -0.0079
  435CH4    CH4  435   1.242   2.959   5.800  0.0441 -0.3419  0.1471
  436CH4    CH4  436   3.166   2.362  10.452 -0.1920  0.3664  0.0434
  437CH4    CH4  437   2.985   2.517   5.677  0.1283  0.0138 -0.0454
  438CH4    CH4  438   3.063   3.403   6.235  0.4266  0.0023 -0.3345
  439CH4    CH4  439   1.226   2.863   6.296  0.3889  0.2383  0.2691
  440CH4    CH4  440   3.680   3.560   6.099  0.1075 -0.3046  0.2784
  441CH4    CH4  441   0.776   1.088   6.652  0.4588  0.3831  0.4804
  442CH4    CH4  442   0.692   1.631   7.115  0.3264 -0.1774  0.1657
  443CH4    CH4  443   0.321   1.835  11.291 -0.1459 -0.0396  0.1463
  444CH4    CH4  444   2.474   3.415   4.798  0.1387  0.2110 -0.3169
  445CH4    CH4  445   1.799   2.710   6.849 -0.1333  0.1434  0.0720
  446CH4    CH4  446   2.699   2.969   7.312  0.1094  0.0160 -0.1149
  447CH4    CH4  447   1.573   0.060   6.394 -0.0958 -0.5278 -0.4763
  448CH4    CH4  448   0.486   2.397   8.239 -0.1944  0.2145  0.2489
  449CH4    CH4  449   0.038   2.050   6.830 -0.3107  0.4518  0.3209
  450CH4    CH4  450   0.943   0.936   7.156  0.2781  0.0719  0.1421
  451CH4    CH4  451   3.023   2.899   7.602 -0.1128 -0.5027  0.6707
  452CH4    CH4  452   2.301   3.021   6.212 -0.3607 -0.0895 -0.2162
  453CH4    CH4  453   1.971   1.589   7.012  0.0364  0.4559 -0.3508
  454CH4    CH4  454   0.869   0.389   6.483 -0.3213 -0.2777  0.2269
  455CH4    CH4  455   1.744   1.859   6.553 -0.1703  0.0369 -0.0282
  456CH4    CH4  456   2.085   3.287   2.288  0.3072 -0.0258  0.0639
  457CH4    CH4  457   0.755   0.261   7.174 -0.3416 -0.0403 -0.1610
  458CH4    CH4  458   0.031   3.356   5.765 -0.1296  0.2185  0.0141
  459CH4    CH4  459   2.423   0.259   4.827 -0.1028  0.1757 -0.0465
  460CH4    CH4  460   0.318   3.425   5.461  0.3101 -0.2190  0.0140
  461CH4    CH4  461   2.428   1.541   5.717  0.3453  0.1032  0.1516
  462CH4    CH4  462   0.607   2.005   8.354  0.6130  0.0435  0.1908
  463CH4    CH4  463   3.736   0.543   6.704 -0.2527  0.2333  0.0449
  464CH4    CH4  464   0.347   2.219   6.129  0.1121 -0.0200  0.0237
  465CH4    CH4  465   1.306   2.764   6.728  0.0157 -0.1421 -0.0188
  466CH4    CH4  466   1.554   2.197   6.532  0.0741 -0.4559 -0.6155
  467CH4    CH4  467   3.659   0.463   7.878 -0.1037 -0.0546  0.1386
  468CH4    CH4  468   1.583   0.401   5.649 -0.0322 -0.0590 -0.0128
  469CH4    CH4  469   1.020   2.531   6.210  0.1357 -0.2267  0.2455
  470CH4    CH4  470   2.016   1.985   6.274  0.1673 -0.3336 -0.1216
  471CH4    CH4  471   3.041   0.901   5.856  0.1700 -0.1324  0.0522
  472CH4    CH4  472   3.176   2.039   6.499 -0.1684 -0.0580 -0.2365
  473CH4    CH4  473   1.108   1.789   5.370  0.0677 -0.2387 -0.0391
  474CH4    CH4  474   1.972   0.058   6.434  0.0293 -0.0900  0.3501
  475CH4    CH4  475   0.599   3.017   9.580 -0.0114  0.0242  0.1425
  476CH4    CH4  476   1.015   1.107   5.922  0.2286  0.3117 -0.0251
  477CH4    CH4  477   0.631   1.568   7.521 -0.1450  0.0875 -0.1094
  478CH4    CH4  478   2.339   1.558   6.813 -0.1086  0.0226 -0.0838
  479CH4    CH4  479   2.510   0.016   6.982  0.1121 -0.3065 -0.1313
  480CH4    CH4  480   0.387   0.572   7.428  0.0383  0.0323 -0.1737
  481CH4    CH4  481   2.833   0.362   5.261  0.2992 -0.0458  0.2628
  482CH4    CH4  482   3.023   1.048   3.193 -0.0831 -0.2388  0.0747
  483CH4    CH4  483   0.020   1.619   6.887 -0.0219 -0.1481  0.1374
  484CH4    CH4  484   1.841   0.105   6.039  0.2644  0.0024 -0.1010
  485CH4    CH4  485   1.685   1.779   6.119  0.5009 -0.1202 -0.0102
  486CH4    CH4  486   3.484   3.020   7.814  0.0159 -0.5249  0.0435
  487CH4    CH4  487   2.308   3.610   5.524 -0.4670  0.0405  0.3531
  488CH4    CH4  488   0.905   0.457   9.133  0.0344  0.2389 -0.3964
  489CH4    CH4  489   2.539   1.476   8.310 -0.1104  0.2315 -0.0155
  490CH4    CH4  490   0.528   2.793   5.746  0.4863  0.0220  0.0661
  491CH4    CH4  491   1.556   3.497   5.881 -0.0538 -0.2341 -0.2029
  492CH4    CH4  492   1.962   3.276   6.974 -0.1388 -0.0984 -0.0733
  493CH4    CH4  493   3.415   2.592   5.770 -0.3363  0.2902 -0.0579
  494CH4    CH4  494   1.938   2.058   7.559 -0.2391  0.1297 -0.3599
  495CH4    CH4  495   3.762   0.767   7.177 -0.5191 -0.1443 -0.1319
  496CH4    CH4  496   2.127   0.618   6.463  0.2842  0.1585 -0.1078
  497CH4    CH4  497   3.781   0.148   6.085  0.2253 -0.0255  0.3107
  498CH4    CH4  498   2.661   0.836   6.262  0.0869 -0.3541 -0.5150
  499CH4    CH4  499   1.502   3.035   5.516 -0.1337  0.1270 -0.3718
  500CH4    CH4  500   0.422   1.554   6.836 -0.3191  0.1475  0.0457
   3.80000   3.80000  14.00000
