Methane (UA) liquid-vapour slab (initial)
  500
    1CH4    CH4    1   0.213   0.285   3.946
    2CH4    CH4    2   0.226   0.250   4.795
    3CH4    CH4    3   0.265   0.279   5.639
    4CH4    CH4    4   0.203   0.284   6.553
    5CH4    CH4    5   0.276   0.200   7.435
    6CH4    CH4    6   0.272   0.223   8.365
    7CH4    CH4    7   0.290   0.203   9.153
    8CH4    CH4    8   0.254   0.294  10.068
    9CH4    CH4    9   0.222   0.714   3.920
   10CH4    CH4   10   0.222   0.715   4.800
   11CH4    CH4   11   0.223   0.695   5.652
   12CH4    CH4   12   0.246   0.700   6.512
   13CH4    CH4   13   0.284   0.727   7.454
   14CH4    CH4   14   0.219   0.771   8.356
   15CH4    CH4   15   0.212   0.705   9.222
   16CH4    CH4   16   0.271   0.765  10.072
   17CH4    CH4   17   0.283   1.210   3.920
   18CH4    CH4   18   0.259   1.231   4.835
   19CH4    CH4   19   0.251   1.202   5.633
   20CH4    CH4   20   0.224   1.223   6.551
   21CH4    CH4   21   0.217   1.198   7.460
   22CH4    CH4   22   0.267   1.180   8.314
   23CH4    CH4   23   0.251   1.221   9.202
   24CH4    CH4   24   0.239   1.192  10.033
   25CH4    CH4   25   0.204   1.685   3.968
   26CH4    CH4   26   0.259   1.654   4.767
   27CH4    CH4   27   0.250   1.712   5.707
   28CH4    CH4   28   0.254   1.700   6.533
   29CH4    CH4   29   0.251   1.710   7.448
   30CH4    CH4   30   0.246   1.641   8.325
   31CH4    CH4   31   0.296   1.615   9.228
   32CH4    CH4   32   0.282   1.703  10.080
   33CH4    CH4   33   0.281   2.138   3.926
   34CH4    CH4   34   0.243   2.091   4.837
   35CH4    CH4   35   0.257   2.106   5.680
   36CH4    CH4   36   0.248   2.121   6.545
   37CH4    CH4   37   0.254   2.148   7.451
   38CH4    CH4   38   0.246   2.089   8.293
   39CH4    CH4   39   0.218   2.144   9.236
   40CH4    CH4   40   0.280   2.165  10.080
   41CH4    CH4   41   0.226   2.641   3.937
   42CH4    CH4   42   0.208   2.559   4.751
   43CH4    CH4   43   0.276   2.582   5.641
   44CH4    CH4   44   0.262   2.592   6.517
   45CH4    CH4   45   0.216   2.610   7.407
   46CH4    CH4   46   0.227   2.628   8.315
   47CH4    CH4   47   0.232   2.605   9.152
   48CH4    CH4   48   0.239   2.599  10.049
   49CH4    CH4   49   0.211   3.119   3.921
   50CH4    CH4   50   0.221   3.089   4.832
   51CH4    CH4   51   0.202   3.030   5.645
   52CH4    CH4   52   0.272   3.045   6.580
   53CH4    CH4   53   0.268   3.083   7.412
   54CH4    CH4   54   0.298   3.108   8.322
   55CH4    CH4   55   0.222   3.093   9.189
   56CH4    CH4   56   0.258   3.061  10.080
   57CH4    CH4   57   0.206   3.530   3.967
   58CH4    CH4   58   0.288   3.531   4.836
   59CH4    CH4   59   0.231   3.594   5.704
   60CH4    CH4   60   0.242   3.525   6.511
   61CH4    CH4   61   0.288   3.504   7.472
   62CH4    CH4   62   0.296   3.557   8.287
   63CH4    CH4   63   0.287   3.597   9.220
   64CH4    CH4   64   0.251   3.538  10.065
   65CH4    CH4   65   0.692   0.267   3.920
   66CH4    CH4   66   0.691   0.210   4.817
   67CH4    CH4   67   0.701   0.250   5.663
   68CH4    CH4   68   0.759   0.290   6.512
   69CH4    CH4   69   0.692   0.233   7.489
   70CH4    CH4   70   0.750   0.234   8.291
   71CH4    CH4   71   0.739   0.284   9.243
   72CH4    CH4   72   0.706   0.288  10.080
   73CH4    CH4   73   0.720   0.770   3.920
   74CH4    CH4   74   0.744   0.680   4.767
   75CH4    CH4   75   0.763   0.693   5.706
   76CH4    CH4   76   0.731   0.756   6.547
   77CH4    CH4   77   0.705   0.701   7.477
   78CH4    CH4   78   0.732   0.767   8.359
   79CH4    CH4   79   0.685   0.727   9.160
   80CH4    CH4   80   0.675   0.679  10.080
   81CH4    CH4   81   0.750   1.226   3.920
   82CH4    CH4   82   0.733   1.221   4.788
   83CH4    CH4   83   0.729   1.165   5.638
   84CH4    CH4   84   0.698   1.232   6.566
   85CH4    CH4   85   0.764   1.189   7.418
   86CH4    CH4   86   0.750   1.226   8.271
   87CH4    CH4   87   0.738   1.152   9.162
   88CH4    CH4   88   0.760   1.147  10.054
   89CH4    CH4   89   0.770   1.656   3.920
   90CH4    CH4   90   0.688   1.638   4.824
   91CH4    CH4   91   0.682   1.705   5.668
   92CH4    CH4   92   0.768   1.705   6.539
   93CH4    CH4   93   0.697   1.662   7.400
   94CH4    CH4   94   0.737   1.618   8.271
   95CH4    CH4   95   0.770   1.644   9.210
   96CH4    CH4   96   0.716   1.646  10.036
   97CH4    CH4   97   0.763   2.183   3.967
   98CH4    CH4   98   0.683   2.107   4.812
   99CH4    CH4   99   0.769   2.140   5.699
  100CH4    CH4  100   0.738   2.112   6.564
  101CH4    CH4  101   0.702   2.110   7.398
  102CH4    CH4  102   0.700   2.184   8.315
  103CH4    CH4  103   0.737   2.150   9.244
  104CH4    CH4  104   0.710   2.116  10.063
  105CH4    CH4  105   0.703   2.642   3.959
  106CH4    CH4  106   0.702   2.591   4.804
  107CH4    CH4  107   0.729   2.617   5.655
  108CH4    CH4  108   0.673   2.582   6.517
  109CH4    CH4  109   0.727   2.564   7.398
  110CH4    CH4  110   0.735   2.586   8.349
  111CH4    CH4  111   0.721   2.643   9.165
  112CH4    CH4  112   0.722   2.637  10.038
  113CH4    CH4  113   0.766   3.046   3.948
  114CH4    CH4  114   0.770   3.111   4.782
  115CH4    CH4  115   0.682   3.080   5.722
  116CH4    CH4  116   0.701   3.118   6.524
  117CH4    CH4  117   0.762   3.032   7.422
  118CH4    CH4  118   0.762   3.109   8.361
  119CH4    CH4  119   0.756   3.103   9.219
  120CH4    CH4  120   0.689   3.072  10.046
  121CH4    CH4  121   0.743   3.567   3.920
  122CH4    CH4  122   0.678   3.596   4.831
  123CH4    CH4  123   0.726   3.554   5.715
  124CH4    CH4  124   0.717   3.540   6.544
  125CH4    CH4  125   0.697   3.502   7.455
  126CH4    CH4  126   0.713   3.557   8.276
  127CH4    CH4  127   0.707   3.514   9.163
  128CH4    CH4  128   0.697   3.583  10.070
  129CH4    CH4  129   1.183   0.261   3.920
  130CH4    CH4  130   1.144   0.253   4.800
  131CH4    CH4  131   1.208   0.244   5.699
  132CH4    CH4  132   1.216   0.224   6.560
  133CH4    CH4  133   1.191   0.223   7.431
  134CH4    CH4  134   1.199   0.291   8.362
  135CH4    CH4  135   1.170   0.265   9.155
  136CH4    CH4  136   1.150   0.251  10.080
  137CH4    CH4  137   1.159   0.748   3.958
  138CH4    CH4  138   1.174   0.741   4.835
  139CH4    CH4  139   1.180   0.742   5.704
  140CH4    CH4  140   1.202   0.757   6.600
  141CH4    CH4  141   1.239   0.729   7.408
  142CH4    CH4  142   1.168   0.693   8.327
  143CH4    CH4  143   1.219   0.677   9.218
  144CH4    CH4  144   1.215   0.706  10.080
  145CH4    CH4  145   1.159   1.216   3.920
  146CH4    CH4  146   1.241   1.224   4.813
  147CH4    CH4  147   1.170   1.234   5.726
  148CH4    CH4  148   1.157   1.220   6.594
  149CH4    CH4  149   1.209   1.213   7.435
  150CH4    CH4  150   1.235   1.240   8.308
  151CH4    CH4  151   1.223   1.186   9.166
  152CH4    CH4  152   1.175   1.155  10.080
  153CH4    CH4  153   1.239   1.626   3.930
  154CH4    CH4  154   1.184   1.626   4.780
  155CH4    CH4  155   1.168   1.689   5.630
  156CH4    CH4  156   1.162   1.658   6.512
  157CH4    CH4  157   1.206   1.675   7.474
  158CH4    CH4  158   1.164   1.643   8.324
  159CH4    CH4  159   1.170   1.673   9.175
  160CH4    CH4  160   1.211   1.693  10.080
  161CH4    CH4  161   1.240   2.140   3.920
  162CH4    CH4  162   1.228   2.163   4.807
  163CH4    CH4  163   1.181   2.114   5.641
  164CH4    CH4  164   1.224   2.098   6.585
  165CH4    CH4  165   1.197   2.182   7.466
  166CH4    CH4  166   1.240   2.099   8.320
  167CH4    CH4  167   1.200   2.117   9.200
  168CH4    CH4  168   1.179   2.139  10.030
  169CH4    CH4  169   1.187   2.602   3.920
  170CH4    CH4  170   1.183   2.635   4.818
  171CH4    CH4  171   1.192   2.622   5.668
  172CH4    CH4  172   1.163   2.558   6.538
  173CH4    CH4  173   1.203   2.645   7.473
  174CH4    CH4  174   1.194   2.656   8.316
  175CH4    CH4  175   1.226   2.598   9.224
  176CH4    CH4  176   1.242   2.588  10.047
  177CH4    CH4  177   1.205   3.082   3.920
  178CH4    CH4  178   1.143   3.067   4.793
  179CH4    CH4  179   1.183   3.115   5.688
  180CH4    CH4  180   1.216   3.118   6.585
  181CH4    CH4  181   1.192   3.103   7.454
  182CH4    CH4  182   1.208   3.092   8.311
  183CH4    CH4  183   1.206   3.092   9.244
  184CH4    CH4  184   1.221   3.113  10.080
  185CH4    CH4  185   1.224   3.561   3.920
  186CH4    CH4  186   1.169   3.571   4.837
  187CH4    CH4  187   1.197   3.515   5.713
  188CH4    CH4  188   1.191   3.547   6.515
  189CH4    CH4  189   1.194   3.574   7.432
  190CH4    CH4  190   1.178   3.566   8.272
  191CH4    CH4  191   1.194   3.595   9.219
  192CH4    CH4  192   1.183   3.569  10.080
  193CH4    CH4  193   1.635   0.221   3.959
  194CH4    CH4  194   1.641   0.207   4.833
  195CH4    CH4  195   1.667   0.237   5.681
  196CH4    CH4  196   1.688   0.217   6.575
  197CH4    CH4  197   1.686   0.282   7.417
  198CH4    CH4  198   1.675   0.223   8.326
  199CH4    CH4  199   1.632   0.279   9.237
  200CH4    CH4  200   1.647   0.222  10.080
  201CH4    CH4  201   1.685   0.756   3.920
  202CH4    CH4  202   1.704   0.734   4.782
  203CH4    CH4  203   1.657   0.748   5.709
  204CH4    CH4  204   1.633   0.734   6.527
  205CH4    CH4  205   1.712   0.716   7.481
  206CH4    CH4  206   1.687   0.732   8.296
  207CH4    CH4  207   1.667   0.685   9.164
  208CH4    CH4  208   1.686   0.708  10.080
  209CH4    CH4  209   1.638   1.215   3.942
  210CH4    CH4  210   1.645   1.153   4.790
  211CH4    CH4  211   1.664   1.153   5.649
  212CH4    CH4  212   1.620   1.203   6.599
  213CH4    CH4  213   1.636   1.146   7.460
  214CH4    CH4  214   1.696   1.239   8.331
  215CH4    CH4  215   1.649   1.227   9.162
  216CH4    CH4  216   1.684   1.152  10.070
  217CH4    CH4  217   1.664   1.652   3.920
  218CH4    CH4  218   1.637   1.696   4.796
  219CH4    CH4  219   1.672   1.635   5.701
  220CH4    CH4  220   1.647   1.674   6.601
  221CH4    CH4  221   1.714   1.619   7.470
  222CH4    CH4  222   1.700   1.646   8.308
  223CH4    CH4  223   1.672   1.706   9.190
  224CH4    CH4  224   1.702   1.690  10.045
  225CH4    CH4  225   1.706   2.087   3.920
  226CH4    CH4  226   1.681   2.091   4.788
  227CH4    CH4  227   1.627   2.132   5.714
  228CH4    CH4  228   1.705   2.089   6.516
  229CH4    CH4  229   1.698   2.090   7.417
  230CH4    CH4  230   1.626   2.095   8.273
  231CH4    CH4  231   1.678   2.160   9.219
  232CH4    CH4  232   1.699   2.152  10.069
  233CH4    CH4  233   1.677   2.654   3.934
  234CH4    CH4  234   1.639   2.563   4.844
  235CH4    CH4  235   1.673   2.592   5.691
  236CH4    CH4  236   1.670   2.609   6.516
  237CH4    CH4  237   1.650   2.598   7.410
  238CH4    CH4  238   1.702   2.600   8.336
  239CH4    CH4  239   1.686   2.631   9.222
  240CH4    CH4  240   1.690   2.582  10.080
  241CH4    CH4  241   1.629   3.120   3.955
  242CH4    CH4  242   1.700   3.034   4.759
  243CH4    CH4  243   1.696   3.075   5.667
  244CH4    CH4  244   1.713   3.033   6.563
  245CH4    CH4  245   1.659   3.041   7.430
  246CH4    CH4  246   1.685   3.117   8.272
  247CH4    CH4  247   1.667   3.038   9.230
  248CH4    CH4  248   1.623   3.032  10.068
  249CH4    CH4  249   1.688   3.531   3.920
  250CH4    CH4  250   1.694   3.581   4.836
  251CH4    CH4  251   1.645   3.542   5.655
  252CH4    CH4  252   1.670   3.533   6.544
  253CH4    CH4  253   1.693   3.596   7.448
  254CH4    CH4  254   1.625   3.565   8.315
  255CH4    CH4  255   1.713   3.572   9.233
  256CH4    CH4  256   1.684   3.554  10.080
  257CH4    CH4  257   2.169   0.229   3.920
  258CH4    CH4  258   2.123   0.252   4.760
  259CH4    CH4  259   2.120   0.257   5.634
  260CH4    CH4  260   2.167   0.265   6.541
  261CH4    CH4  261   2.116   0.235   7.423
  262CH4    CH4  262   2.161   0.250   8.323
  263CH4    CH4  263   2.101   0.291   9.183
  264CH4    CH4  264   2.118   0.207  10.080
  265CH4    CH4  265   2.134   0.763   3.963
  266CH4    CH4  266   2.183   0.753   4.843
  267CH4    CH4  267   2.178   0.752   5.643
  268CH4    CH4  268   2.138   0.729   6.609
  269CH4    CH4  269   2.164   0.742   7.465
  270CH4    CH4  270   2.122   0.766   8.334
  271CH4    CH4  271   2.126   0.718   9.248
  272CH4    CH4  272   2.139   0.688  10.045
  273CH4    CH4  273   2.154   1.199   3.961
  274CH4    CH4  274   2.104   1.184   4.823
  275CH4    CH4  275   2.091   1.153   5.685
  276CH4    CH4  276   2.112   1.154   6.536
  277CH4    CH4  277   2.149   1.195   7.398
  278CH4    CH4  278   2.093   1.228   8.334
  279CH4    CH4  279   2.103   1.229   9.152
  280CH4    CH4  280   2.123   1.228  10.080
  281CH4    CH4  281   2.114   1.703   3.930
  282CH4    CH4  282   2.172   1.704   4.793
  283CH4    CH4  283   2.153   1.669   5.724
  284CH4    CH4  284   2.166   1.687   6.591
  285CH4    CH4  285   2.186   1.640   7.410
  286CH4    CH4  286   2.160   1.691   8.321
  287CH4    CH4  287   2.134   1.655   9.238
  288CH4    CH4  288   2.165   1.673  10.034
  289CH4    CH4  289   2.171   2.132   3.920
  290CH4    CH4  290   2.116   2.155   4.751
  291CH4    CH4  291   2.098   2.116   5.719
  292CH4    CH4  292   2.160   2.183   6.564
  293CH4    CH4  293   2.143   2.141   7.443
  294CH4    CH4  294   2.140   2.168   8.365
  295CH4    CH4  295   2.127   2.149   9.181
  296CH4    CH4  296   2.116   2.136  10.080
  297CH4    CH4  297   2.141   2.655   3.920
  298CH4    CH4  298   2.149   2.657   4.824
  299CH4    CH4  299   2.142   2.594   5.670
  300CH4    CH4  300   2.179   2.647   6.577
  301CH4    CH4  301   2.176   2.650   7.475
  302CH4    CH4  302   2.124   2.604   8.350
  303CH4    CH4  303   2.123   2.632   9.198
  304CH4    CH4  304   2.119   2.603  10.042
  305CH4    CH4  305   2.121   3.070   3.920
  306CH4    CH4  306   2.103   3.055   4.836
  307CH4    CH4  307   2.145   3.057   5.730
  308CH4    CH4  308   2.112   3.080   6.584
  309CH4    CH4  309   2.155   3.072   7.468
  310CH4    CH4  310   2.134   3.100   8.319
  311CH4    CH4  311   2.183   3.100   9.159
  312CH4    CH4  312   2.099   3.125  10.053
  313CH4    CH4  313   2.088   3.525   3.920
  314CH4    CH4  314   2.181   3.540   4.822
  315CH4    CH4  315   2.169   3.509   5.691
  316CH4    CH4  316   2.185   3.555   6.563
  317CH4    CH4  317   2.120   3.595   7.487
  318CH4    CH4  318   2.096   3.555   8.312
  319CH4    CH4  319   2.153   3.512   9.177
  320CH4    CH4  320   2.114   3.548  10.080
  321CH4    CH4  321   2.643   0.279   3.938
  322CH4    CH4  322   2.566   0.239   4.817
  323CH4    CH4  323   2.587   0.251   5.721
  324CH4    CH4  324   2.569   0.285   6.521
  325CH4    CH4  325   2.596   0.291   7.410
  326CH4    CH4  326   2.609   0.242   8.359
  327CH4    CH4  327   2.656   0.229   9.199
  328CH4    CH4  328   2.647   0.254  10.051
  329CH4    CH4  329   2.633   0.705   3.920
  330CH4    CH4  330   2.558   0.770   4.816
  331CH4    CH4  331   2.650   0.768   5.657
  332CH4    CH4  332   2.611   0.715   6.586
  333CH4    CH4  333   2.641   0.694   7.417
  334CH4    CH4  334   2.628   0.713   8.283
  335CH4    CH4  335   2.577   0.728   9.210
  336CH4    CH4  336   2.653   0.725  10.080
  337CH4    CH4  337   2.572   1.184   3.920
  338CH4    CH4  338   2.627   1.170   4.771
  339CH4    CH4  339   2.594   1.190   5.664
  340CH4    CH4  340   2.618   1.161   6.598
  341CH4    CH4  341   2.627   1.196   7.396
  342CH4    CH4  342   2.590   1.212   8.335
  343CH4    CH4  343   2.638   1.232   9.182
  344CH4    CH4  344   2.607   1.176  10.043
  345CH4    CH4  345   2.571   1.640   3.920
  346CH4    CH4  346   2.611   1.685   4.806
  347CH4    CH4  347   2.626   1.637   5.650
  348CH4    CH4  348   2.614   1.703   6.552
  349CH4    CH4  349   2.558   1.616   7.421
  350CH4    CH4  350   2.619   1.623   8.292
  351CH4    CH4  351   2.625   1.713   9.184
  352CH4    CH4  352   2.617   1.666  10.032
  353CH4    CH4  353   2.590   2.100   3.920
  354CH4    CH4  354   2.634   2.154   4.754
  355CH4    CH4  355   2.565   2.158   5.640
  356CH4    CH4  356   2.589   2.113   6.515
  357CH4    CH4  357   2.560   2.100   7.430
  358CH4    CH4  358   2.651   2.150   8.294
  359CH4    CH4  359   2.625   2.113   9.202
  360CH4    CH4  360   2.589   2.181  10.065
  361CH4    CH4  361   2.637   2.621   3.954
  362CH4    CH4  362   2.618   2.644   4.791
  363CH4    CH4  363   2.625   2.619   5.683
  364CH4    CH4  364   2.614   2.611   6.549
  365CH4    CH4  365   2.647   2.620   7.445
  366CH4    CH4  366   2.563   2.608   8.288
  367CH4    CH4  367   2.579   2.601   9.205
  368CH4    CH4  368   2.582   2.584  10.080
  369CH4    CH4  369   2.604   3.069   3.920
  370CH4    CH4  370   2.594   3.094   4.804
  371CH4    CH4  371   2.612   3.113   5.702
  372CH4    CH4  372   2.626   3.032   6.541
  373CH4    CH4  373   2.625   3.044   7.481
  374CH4    CH4  374   2.571   3.116   8.292
  375CH4    CH4  375   2.641   3.113   9.184
  376CH4    CH4  376   2.646   3.045  10.080
  377CH4    CH4  377   2.595   3.544   3.920
  378CH4    CH4  378   2.617   3.527   4.817
  379CH4    CH4  379   2.637   3.560   5.631
  380CH4    CH4  380   2.652   3.592   6.574
  381CH4    CH4  381   2.595   3.556   7.478
  382CH4    CH4  382   2.603   3.578   8.330
  383CH4    CH4  383   2.599   3.593   9.191
  384CH4    CH4  384   2.618   3.505  10.077
  385CH4    CH4  385   3.032   0.270   3.920
  386CH4    CH4  386   3.033   0.211   4.764
  387CH4    CH4  387   3.079   0.236   5.657
  388CH4    CH4  388   3.127   0.291   6.575
  389CH4    CH4  389   3.109   0.282   7.415
  390CH4    CH4  390   3.109   0.224   8.326
  391CH4    CH4  391   3.064   0.216   9.228
  392CH4    CH4  392   3.120   0.231  10.080
  393CH4    CH4  393   3.063   0.737   3.970
  394CH4    CH4  394   3.106   0.677   4.793
  395CH4    CH4  395   3.066   0.701   5.712
  396CH4    CH4  396   3.073   0.741   6.573
  397CH4    CH4  397   3.080   0.677   7.457
  398CH4    CH4  398   3.118   0.689   8.334
  399CH4    CH4  399   3.077   0.706   9.221
  400CH4    CH4  400   3.126   0.674  10.080
  401CH4    CH4  401   3.067   1.226   3.920
  402CH4    CH4  402   3.100   1.153   4.784
  403CH4    CH4  403   3.126   1.209   5.708
  404CH4    CH4  404   3.075   1.190   6.559
  405CH4    CH4  405   3.106   1.215   7.409
  406CH4    CH4  406   3.073   1.197   8.327
  407CH4    CH4  407   3.121   1.227   9.165
  408CH4    CH4  408   3.066   1.154  10.033
  409CH4    CH4  409   3.036   1.633   3.947
  410CH4    CH4  410   3.095   1.694   4.779
  411CH4    CH4  411   3.044   1.711   5.713
  412CH4    CH4  412   3.123   1.616   6.550
  413CH4    CH4  413   3.092   1.688   7.481
  414CH4    CH4  414   3.082   1.653   8.271
  415CH4    CH4  415   3.109   1.713   9.241
  416CH4    CH4  416   3.095   1.649  10.054
  417CH4    CH4  417   3.106   2.179   3.966
  418CH4    CH4  418   3.046   2.144   4.801
  419CH4    CH4  419   3.071   2.165   5.724
  420CH4    CH4  420   3.101   2.156   6.579
  421CH4    CH4  421   3.094   2.139   7.415
  422CH4    CH4  422   3.107   2.098   8.334
  423CH4    CH4  423   3.067   2.142   9.214
  424CH4    CH4  424   3.076   2.184  10.054
  425CH4    CH4  425   3.030   2.653   3.920
  426CH4    CH4  426   3.056   2.599   4.809
  427CH4    CH4  427   3.127   2.628   5.662
  428CH4    CH4  428   3.082   2.602   6.560
  429CH4    CH4  429   3.070   2.574   7.430
  430CH4    CH4  430   3.067   2.577   8.352
  431CH4    CH4  431   3.065   2.572   9.207
  432CH4    CH4  432   3.113   2.635  10.080
  433CH4    CH4  433   3.102   3.062   3.920
  434CH4    CH4  434   3.054   3.064   4.778
  435CH4    CH4  435   3.075   3.043   5.643
  436CH4    CH4  436   3.054   3.048   6.590
  437CH4    CH4  437   3.082   3.048   7.433
  438CH4    CH4  438   3.116   3.086   8.325
  439CH4    CH4  439   3.068   3.048   9.213
  440CH4    CH4  440   3.036   3.107  10.036
  441CH4    CH4  441   3.103   3.538   3.938
  442CH4    CH4  442   3.088   3.513   4.804
  443CH4    CH4  443   3.036   3.524   5.668
  444CH4    CH4  444   3.057   3.566   6.609
  445CH4    CH4  445   3.064   3.584   7.413
  446CH4    CH4  446   3.100   3.535   8.324
  447CH4    CH4  447   3.037   3.583   9.171
  448CH4    CH4  448   3.075   3.529  10.080
  449CH4    CH4  449   3.559   0.262   3.945
  450CH4    CH4  450   3.525   0.206   4.833
  451CH4    CH4  451   3.532   0.281   5.726
  452CH4    CH4  452   3.563   0.210   6.595
  453CH4    CH4  453   3.563   0.225   7.411
  454CH4    CH4  454   3.551   0.212   8.361
  455CH4    CH4  455   3.571   0.282   9.188
  456CH4    CH4  456   3.592   0.213  10.080
  457CH4    CH4  457   3.525   0.672   3.920
  458CH4    CH4  458   3.520   0.748   4.788
  459CH4    CH4  459   3.548   0.733   5.657
  460CH4    CH4  460   3.564   0.739   6.602
  461CH4    CH4  461   3.550   0.757   7.487
  462CH4    CH4  462   3.577   0.714   8.297
  463CH4    CH4  463   3.510   0.755   9.163
  464CH4    CH4  464   3.556   0.717  10.034
  465CH4    CH4  465   3.521   1.225   3.924
  466CH4    CH4  466   3.592   1.234   4.759
  467CH4    CH4  467   3.568   1.147   5.672
  468CH4    CH4  468   3.544   1.239   6.570
  469CH4    CH4  469   3.519   1.194   7.442
  470CH4    CH4  470   3.520   1.179   8.358
  471CH4    CH4  471   3.598   1.221   9.156
  472CH4    CH4  472   3.591   1.189  10.080
  473CH4    CH4  473   3.518   1.629   3.961
  474CH4    CH4  474   3.529   1.619   4.800
  475CH4    CH4  475   3.599   1.698   5.670
  476CH4    CH4  476   3.599   1.694   6.594
  477CH4    CH4  477   3.565   1.654   7.481
  478CH4    CH4  478   3.547   1.708   8.325
  479CH4    CH4  479   3.591   1.662   9.193
  480CH4    CH4  480   3.559   1.646  10.045
  481CH4    CH4  481   3.559   2.171   3.920
  482CH4    CH4  482   3.587   2.164   4.828
  483CH4    CH4  483   3.542   2.186   5.709
  484CH4    CH4  484   3.558   2.097   6.567
  485CH4    CH4  485   3.501   2.176   7.424
  486CH4    CH4  486   3.537   2.141   8.334
  487CH4    CH4  487   3.558   2.134   9.213
  488CH4    CH4  488   3.585   2.130  10.080
  489CH4    CH4  489   3.581   2.557   3.920
  490CH4    CH4  490   3.533   2.579   4.840
  491CH4    CH4  491   3.515   2.568   5.662
  492CH4    CH4  492   3.551   2.639   6.610
  493CH4    CH4  493   3.585   2.618   7.394
  494CH4    CH4  494   3.506   2.620   8.352
  495CH4    CH4  495   3.527   2.654   9.205
  496CH4    CH4  496   3.557   2.619  10.037
  497CH4    CH4  497   3.517   3.122   3.920
  498CH4    CH4  498   3.508   3.057   4.823
  499CH4    CH4  499   3.526   3.050   5.658
  500CH4    CH4  500   3.548   3.102   6.540
   3.80000   3.80000  14.00000
