Methane liquid-vapour slab (united-atom)
  500
    1CH4    CH4    1   0.376   2.237  13.237 -0.1602 -0.0196  0.4798
    2CH4    CH4    2   0.522   1.996   9.106  0.2827 -0.2673 -0.3969
    3CH4    CH4    3   0.236   0.890  10.089  0.0801  0.2715  0.0554
    4CH4    CH4    4   1.275   1.850   1.641  0.3942  0.6067 -0.1518
    5CH4    CH4    5   2.802   1.074   5.967  0.1923  0.2459 -0.1429
    6CH4    CH4    6   0.785   1.597  11.143 -0.1677  0.3576  0.1983
    7CH4    CH4    7   3.330   0.957   8.103 -0.4073 -0.0196  0.5109
    8CH4    CH4    8   2.218   1.190   1.114 -0.0327  0.0265  0.2074
    9CH4    CH4    9   2.369   1.620  13.384  0.2534  0.3034 -0.1169
   10CH4    CH4   10   1.152   0.386  13.159 -0.1970 -0.7541  0.1407
   11CH4    CH4   11   0.132   0.881   1.027  0.0424  0.3115  0.1940
   12CH4    CH4   12   3.404   2.480   5.277 -0.4993  0.3306  0.2831
   13CH4    CH4   13   2.936   2.448   1.662 -0.0932  0.4807  0.6156
   14CH4    CH4   14   0.098   2.472  12.610  0.1354  0.0920 -0.4534
   15CH4    CH4   15   1.680   2.551   5.202  0.5192  0.1665 -0.0211
   16CH4    CH4   16   2.119   1.083   7.406 -0.1359 -0.1872  0.2448
   17CH4    CH4   17   1.598   3.265   0.730  0.4298  0.0493 -0.1469
   18CH4    CH4   18   0.416   1.077  12.237  0.1412 -0.2839  0.2935
   19CH4    CH4   19   3.378   3.655   3.216  0.0503  0.0745 -0.0942
   20CH4    CH4   20   2.371   3.235   9.323  0.0375 -0.1975 -0.0880
   21CH4    CH4   21   0.893   1.298   5.858 -0.0206  0.1050  0.4878
   22CH4    CH4   22   2.815   1.126   9.523 -0.0564 -0.2390  0.0821
   23CH4    CH4   23   0.657   0.432   7.684 -0.3376 -0.1616  0.3179
   24CH4    CH4   24   2.567   2.555   5.091 -0.3660 -0.0053  0.6186
   25CH4    CH4   25   2.070   0.324  13.942 -0.3456  0.0143 -0.4820
   26CH4    CH4   26   3.773   0.456   7.562  0.2058 -0.4058  0.0053
   27CH4    CH4   27   0.361   1.200  10.918  0.1491  0.0463  0.0702
   28CH4    CH4   28   3.517   3.033   5.595 -0.4550 -0.0456 -0.2168
   29CH4    CH4   29   2.774   2.835   8.428  0.3311 -0.2816 -0.1698
   30CH4    CH4   30   2.584   3.298  12.054 -0.2385  0.1332 -0.2322
   31CH4    CH4   31   0.756   0.757   0.010 -0.1533 -0.1190 -0.2353
   32CH4    CH4   32   0.772   1.068   3.009 -0.2977 -0.6899 -0.1034
   33CH4    CH4   33   2.902   2.135   8.926 -0.2418 -0.3020  0.0920
   34CH4    CH4   34   2.358   1.241   6.454 -0.2112 -0.1457  0.0739
   35CH4    CH4   35   0.703   2.078  11.773 -0.0548  0.3378 -0.3320
   36CH4    CH4   36   0.936   1.656   5.632  0.0927 -0.0671  0.5317
   37CH4    CH4   37   0.739   1.990  11.288 -0.1369  0.3165 -0.8103
   38CH4    CH4   38   0.578   3.415   3.919  0.3031 -0.3278  0.2431
   39CH4    CH4   39   0.830   2.677   5.667  0.2054  0.3220  0.3321
   40CH4    CH4   40   0.209   2.796   1.757 -0.2099  0.2562 -0.3007
   41CH4    CH4   41   3.417   1.026   0.678 -0.5613  0.2221 -0.1227
   42CH4    CH4   42   1.995   0.042  11.795 -0.1926  0.1291 -0.3341
   43CH4    CH4   43   2.657   2.888   4.239  0.4494 -0.0981 -0.3397
   44CH4    CH4   44   0.975   1.569   3.792 -0.0174 -0.0581 -0.1197
   45CH4    CH4   45   0.604   0.885   7.749 -0.1899  0.1620 -0.1700
   46CH4    CH4   46   2.757   2.112   5.955  0.0184  0.1921  0.4065
   47CH4    CH4   47   0.419   3.078   1.486 -0.5917  0.2995 -0.1192
   48CH4    CH4   48   2.017   1.481   4.090 -0.0078  0.1281  0.1036
   49CH4    CH4   49   1.292   1.351  11.597  0.2735  0.1771  0.2343
   50CH4    CH4   50   0.954   1.269  11.048 -0.0090 -0.0382  0.3627
   51CH4    CH4   51   0.513   0.222  13.593 -0.7257 -0.1887  0.0311
   52CH4    CH4   52   2.060   1.441  12.166  0.0182  0.3803 -0.2365
   53CH4    CH4   53   0.470   1.435  12.133  0.0933 -0.2153  0.2301
   54CH4    CH4   54   3.100   2.438   6.602 -0.3230 -0.1751  0.1990
   55CH4    CH4   55   0.609   2.143  10.864  0.3705 -0.2025 -0.3846
   56CH4    CH4   56   0.289   1.651   7.390  0.0298 -0.1537 -0.0943
   57CH4    CH4   57   0.377   1.884  11.152  0.2970 -0.0995  0.6005
   58CH4    CH4   58   0.802   1.924   0.148 -0.2427  0.5729 -0.0951
   59CH4    CH4   59   0.545   2.239   8.759  0.4768 -0.4430 -0.0108
   60CH4    CH4   60   2.210   1.016   3.964 -0.4002 -0.2474 -0.0198
   61CH4    CH4   61   0.629   3.104   1.053 -0.2681  0.4173  0.3815
   62CH4    CH4   62   0.199   3.304   9.581  0.1144 -0.0341  0.0769
   63CH4    CH4   63   2.989   3.072   8.888 -0.0099  0.0058  0.1211
   64CH4    CH4   64   2.332   1.158   0.084 -0.2267 -0.5128  0.3242
   65CH4    CH4   65   3.035   2.301   2.687  0.2121 -0.4710  0.1099
   66CH4    CH4   66   2.965   0.913   8.614 -0.0766  0.5150 -0.3073
   67CH4    CH4   67   2.746   0.793   9.930 -0.1171  0.0563  0.2583
   68CH4    CH4   68   2.903   1.403   7.920 -0.2099 -0.0352 -0.1472
   69CH4    CH4   69   3.072   1.417   9.274  0.4621  0.0224  0.1881
   70CH4    CH4   70   2.162   2.027   9.293 -0.3875  0.3506 -0.2885
   71CH4    CH4   71   1.030   0.950  10.132  0.1774 -0.5121 -0.2677
   72CH4    CH4   72   0.392   0.781   3.117  0.4619  0.2095  0.0300
   73CH4    CH4   73   0.310   2.745   7.883 -0.1458  0.5018  0.4633
   74CH4    CH4   74   3.325   2.708   8.147  0.2866 -0.1389 -0.2775
   75CH4    CH4   75   2.491   3.399   4.940 -0.3356  0.0045  0.3582
   76CH4    CH4   76   3.668   3.487   9.670  0.0087 -0.0079 -0.3536
   77CH4    CH4   77   1.060   1.462   7.422 -0.1613 -0.3220  0.1529
   78CH4    CH4   78   1.813   1.269   2.792 -0.0125 -0.3238  0.0274
   79CH4    CH4   79   2.651   0.854  13.224 -0.2212  0.3573 -0.3826
   80CH4    CH4   80   3.677   2.933  12.090  0.1187 -0.2283  0.2501
   81CH4    CH4   81   1.997   2.258  13.466  0.0623  0.4519 -0.5424
   82CH4    CH4   82   1.270   3.670  11.479 -0.2249 -0.0519  0.1821
   83CH4    CH4   83   3.595   3.076   7.721 -0.1647 -0.2826 -0.2557
   84CH4    CH4   84   1.427   1.386   2.876 -0.0939 -0.2552 -0.4582
   85CH4    CH4   85   0.411   1.065  12.743 -0.0895 -0.3844  0.1366
   86CH4    CH4   86   2.006   1.040   9.103 -0.0482 -0.0228 -0.3994
   87CH4    CH4   87   2.083   1.430   7.991  0.1893  0.3258 -0.3937
   88CH4    CH4   88   1.937   0.715   0.745 -0.3222  0.0674 -0.3425
   89CH4    CH4   89   2.962   0.216   9.295 -0.3957  0.0193  0.5785
   90CH4    CH4   90   2.600   2.367   5.569  0.0013 -0.3187 -0.0218
   91CH4    CH4   91   3.699   3.054   0.770  0.0339  0.2854 -0.1540
   92CH4    CH4   92   0.797   2.138   0.513  0.3858 -0.2759  0.2070
   93CH4    CH4   93   1.237   0.647  13.878 -0.0321  0.8245 -0.2577
   94CH4    CH4   94   1.902   2.618  11.590  0.0986  0.4920  0.0802
   95CH4    CH4   95   0.671   1.429  10.775  0.2341 -0.3948  0.5720
   96CH4    CH4   96   0.218   1.545  10.993 -0.2586  0.3367  0.1269
   97CH4    CH4   97   3.430   1.594   9.246 -0.2403 -0.0377 -0.1992
   98CH4    CH4   98   1.208   3.141   4.738  0.2728 -0.2037 -0.3440
   99CH4    CH4   99   3.509   3.049   3.827  0.4772 -0.4162 -0.1903
  100CH4    CH4  100   0.079   1.911   3.619  0.0054  0.2046  0.5193
  101CH4    CH4  101   0.028   2.704   5.297  0.0561  0.2539 -0.0791
  102CH4    CH4  102   1.724   1.179  11.314 -0.4040  0.3711  0.4956
  103CH4    CH4  103   3.392   2.922   4.921 -0.2403  0.3125 -0.0220
  104CH4    CH4  104   0.216   2.908   4.285 -0.0113 -0.3144 -0.1678
  105CH4    CH4  105   0.797   0.423   3.920 -0.2676  0.1239  0.1134
  106CH4    CH4  106   1.554   1.078   2.437 -0.2158  0.0710  0.3133
  107CH4    CH4  107   1.591   3.041   2.410  0.0897  0.0897 -0.2438
  108CH4    CH4  108   3.074   0.877  10.934  0.3099  0.0668  0.0969
  109CH4    CH4  109   0.807   0.550  11.874 -0.0390  0.1216 -0.0965
  110CH4    CH4  110   2.932   3.068   0.835  0.0979 -0.0095 -0.2708
  111CH4    CH4  111   1.101   1.663  13.982  0.5042  0.0746  0.3133
  112CH4    CH4  112   3.202   3.189   0.045  0.2252  0.5777 -0.3849
  113CH4    CH4  113   2.716   3.142   7.764 -0.1350 -0.1096 -0.6197
  114CH4    CH4  114   0.069   2.998  13.309 -0.0399 -0.2723 -0.2161
  115CH4    CH4  115   1.107   1.163   8.178 -0.3102 -0.0033  0.0522
  116CH4    CH4  116   0.010   2.401  12.207  0.2375  0.1154  0.3606
  117CH4    CH4  117   2.743   2.747   4.768 -0.5706 -0.1534 -0.1404
  118CH4    CH4  118   0.421   0.251   0.653 -0.6473  0.2514 -0.1946
  119CH4    CH4  119   0.535   0.985   9.800  0.0461 -0.1313  0.1064
  120CH4    CH4  120   2.732   1.765   7.631 -0.0907 -0.3177  0.2330
  121CH4    CH4  121   2.821   1.161  10.213 -0.1762  0.2266 -0.1334
  122CH4    CH4  122   3.599   2.973   9.682  0.1361  0.3057  0.6078
  123CH4    CH4  123   2.741   2.995   5.372  0.2487  0.2721 -0.3414
  124CH4    CH4  124   3.341   0.676   8.387 -0.2327  0.1610 -0.4321
  125CH4    CH4  125   0.903   0.562  13.594 -0.1044  0.3369 -0.6135
  126CH4    CH4  126   0.832   1.505  13.631  0.6369  0.4330  0.5523
  127CH4    CH4  127   2.854   1.342   6.524 -0.5181 -0.0372 -0.0494
  128CH4    CH4  128   1.777   3.592   5.191  0.0757  0.1322 -0.2828
  129CH4    CH4  129   2.449   0.800  13.883 -0.4205 -0.3512  0.0923
  130CH4    CH4  130   2.819   0.251   7.433 -0.6346  0.8664  0.0491
  131CH4    CH4  131   1.481   0.516   3.096  0.4665 -0.0670 -0.2466
  132CH4    CH4  132   3.365   3.632  13.365  0.0755  0.0369 -0.3369
  133CH4    CH4  133   1.658   3.019   4.691  0.1243 -0.1625  0.0849
  134CH4    CH4  134   0.446   0.700  10.965  0.0866  0.5567  0.4334
  135CH4    CH4  135   0.546   0.152   3.617  0.1901  0.2585 -0.1922
  136CH4    CH4  136   0.043   0.346  12.740  0.2262 -0.2906  0.4574
  137CH4    CH4  137   0.666   0.522   2.010  0.0173 -0.0421  0.2140
  138CH4    CH4  138   0.866   3.224   5.055  0.0764  0.1078 -0.5692
  139CH4    CH4  139   2.482   1.086  11.048 -0.2605 -0.1574 -0.0097
  140CH4    CH4  140   3.711   2.823  12.687 -0.2077  0.0044 -0.0814
  141CH4    CH4  141   1.719   3.642   7.288 -0.2574  0.2348  0.0009
  142CH4    CH4  142   0.301   3.325   4.352 -0.2688 -0.1065  0.9376
  143CH4    CH4  143   0.683   0.960  13.100 -0.1599  0.2867 -0.2449
  144CH4    CH4  144   0.944   1.190   9.787 -0.0241  0.3344  0.1426
  145CH4    CH4  145   0.227   0.985   2.582 -0.3221 -0.2004 -0.1558
  146CH4    CH4  146   2.004   1.024   8.371 -0.0530  0.1300 -0.2960
  147CH4    CH4  147   3.617   1.739   5.064 -0.1898  0.1866 -0.3523
  148CH4    CH4  148   0.246   2.881   7.246  0.3582  0.3714  0.0575
  149CH4    CH4  149   2.082   1.999   6.261  0.2467  0.2931 -0.2310
  150CH4    CH4  150   1.154   3.485   0.894 -0.0045 -0.0881 -0.1447
  151CH4    CH4  151   2.812   2.129   7.879  0.1263 -0.0858 -0.1930
  152CH4    CH4  152   3.642   0.256   3.952 -0.0084 -0.1112 -0.4516
  153CH4    CH4  153   1.065   2.814  10.319 -0.4107 -0.1251  0.3674
  154CH4    CH4  154   3.171   3.360   1.045 -0.3209 -0.2077  0.0778
  155CH4    CH4  155   0.608   1.951  12.139 -0.1063 -0.2928 -0.1116
  156CH4    CH4  156   0.551   2.914   5.418  0.6248 -0.1380 -0.0746
  157CH4    CH4  157   1.310   1.988   5.800  0.0668 -0.1034  0.2627
  158CH4    CH4  158   2.941   3.304  13.590  0.2526  0.0588 -0.1812
  159CH4    CH4  159   2.832   2.078   6.612 -0.0330  0.0469 -0.2709
  160CH4    CH4  160   0.947   0.956   0.454  0.1122 -0.0643 -0.0953
  161CH4    CH4  161   2.013   1.929   5.333 -0.2502  0.3502 -0.2527
  162CH4    CH4  162   0.498   2.811   2.744  0.6205  0.3152 -0.2330
  163CH4    CH4  163   0.348   0.163   7.580  0.3923  0.1537  0.3915
  164CH4    CH4  164   3.497   1.064   3.126 -0.2576 -0.0498  0.4462
  165CH4    CH4  165   3.194   3.256   5.710 -0.0677  0.2941 -0.0915
  166CH4    CH4  166   0.130   3.005  10.172 -0.2076  0.1750  0.0627
  167CH4    CH4  167   1.256   2.564   8.257  0.0674  0.1359  0.1286
  168CH4    CH4  168   2.731   1.492  13.146 -0.1507  0.3183  0.0652
  169CH4    CH4  169   3.341   2.138  10.655  0.0388 -0.1383  0.5235
  170CH4    CH4  170   2.652   1.554  10.153 -0.0346 -0.0015 -0.2148
  171CH4    CH4  171   0.118   3.102   9.217  0.1897 -0.0531 -0.0861
  172CH4    CH4  172   2.788   3.163   3.212 -0.0734 -0.0597  0.1282
  173CH4    CH4  173   2.613   2.333  10.011  0.1394 -0.0803 -0.4654
  174CH4    CH4  174   2.347   0.512   0.337 -0.0590  0.3067 -0.0878
  175CH4    CH4  175   1.861   2.590   8.373 -0.4395 -0.0232  0.5797
  176CH4    CH4  176   0.068   1.262   0.559 -0.4590  0.4371  0.4622
  177CH4    CH4  177   3.322   1.885  11.299  0.4177 -0.5024 -0.1322
  178CH4    CH4  178   0.261   0.707  12.825  0.0239  0.3251 -0.5090
  179CH4    CH4  179   1.204   0.318   0.105 -0.4628  0.0655 -0.1205
  180CH4    CH4  180   0.301   3.292   0.704  0.3112  0.6755  0.2824
  181CH4    CH4  181   3.186   1.635   4.791 -0.0825  0.0993 -0.3847
  182CH4    CH4  182   2.294   0.898  13.550  0.0392  0.0436  0.2891
  183CH4    CH4  183   0.539   2.778  11.070  0.0433  0.1793  0.0122
  184CH4    CH4  184   3.780   3.369  13.570 -0.4118 -0.0923 -0.1829
  185CH4    CH4  185   2.307   0.174   4.371 -0.3864 -0.1254  0.1704
  186CH4    CH4  186   1.890   3.251  13.039 -0.1090 -0.2716  0.1037
  187CH4    CH4  187   0.732   0.981   1.206 -0.0308  0.3509 -0.3553
  188CH4    CH4  188   3.452   0.971  13.556 -0.1007  0.3663  0.4826
  189CH4    CH4  189   0.628   1.816  13.338  0.3595 -0.5223 -0.5024
  190CH4    CH4  190   3.051   0.179   1.841 -0.2526 -0.3331  0.2139
  191CH4    CH4  191   0.373   0.532   0.188  0.2878 -0.2802 -0.2903
  192CH4    CH4  192   2.058   0.952  11.254  0.5850 -0.3042 -0.3925
  193CH4    CH4  193   2.268   3.758   5.150  0.2486 -0.0671  0.2884
  194CH4    CH4  194   2.763   2.925  12.137 -0.3185 -0.1863  0.2333
  195CH4    CH4  195   1.366   0.048   5.321 -0.4517  0.0590 -0.7089
  196CH4    CH4  196   2.633   2.944   0.427 -0.0171  0.0812 -0.1103
  197CH4    CH4  197   0.157   2.729  11.888  0.1115 -0.3334 -0.1661
  198CH4    CH4  198   2.401   1.373   1.447  0.7092  0.0167  0.4624
  199CH4    CH4  199   0.798   1.984   4.808 -0.2933 -0.3808  0.2541
  200CH4    CH4  200   1.210   1.364  13.181 -0.4642  0.2273 -0.1980
  201CH4    CH4  201   2.755   0.399  13.047 -0.4701 -0.1414  0.1422
  202CH4    CH4  202   0.188   0.083   1.940  0.0567 -0.0167 -0.0248
  203CH4    CH4  203   1.558   3.010   0.010 -0.1401  0.3200  0.0659
  204CH4    CH4  204   3.468   3.118  13.523  0.4470 -0.0755 -0.0512
  205CH4    CH4  205   2.266   3.089   4.214 -0.1284  0.4198 -0.1572
  206CH4    CH4  206   1.194   0.328   5.999  0.1127 -0.3182 -0.4088
  207CH4    CH4  207   3.477   1.038  10.005  0.7598  0.5539  0.3813
  208CH4    CH4  208   1.312   1.541   3.334  0.0201 -0.0166 -0.1879
  209CH4    CH4  209   1.174   2.436   2.736 -0.6385 -0.0579 -0.1168
  210CH4    CH4  210   2.969   1.772   2.263  0.1830  0.3746 -0.3524
  211CH4    CH4  211   1.023   1.953   8.042 -0.1424 -0.1756  0.5955
  212CH4    CH4  212   3.021   0.665   8.953  0.0005 -0.0538 -0.2292
  213CH4    CH4  213   2.794   2.078   2.054  0.5041  0.0232 -0.0925
  214CH4    CH4  214   0.927   3.677   4.286 -0.0469  0.1609  0.4032
  215CH4    CH4  215   0.248   0.808   7.325  0.2913  0.4838 -0.6259
  216CH4    CH4  216   0.411   0.369   9.416  0.0424  0.1926 -0.0105
  217CH4    CH4  217   1.489   2.509   4.465 -0.3320 -0.0911 -0.0294
  218CH4    CH4  218   2.867   1.651   0.085  0.3662 -0.3187  0.1703
  219CH4    CH4  219   1.422   2.839   4.994 -0.1159  0.1646  0.0499
  220CH4    CH4  220   3.484   3.222   6.011 -0.0012 -0.0201  0.2060
  221CH4    CH4  221   1.478   1.787  13.949  0.2314 -0.3203  0.0875
  222CH4    CH4  222   1.284   1.297  10.769 -0.0625 -0.1964 -0.4511
  223CH4    CH4  223   2.827   1.569   3.536 -0.5351 -0.0985  0.6043
  224CH4    CH4  224   2.983   3.326  10.844 -0.6536 -0.3441  0.0506
  225CH4    CH4  225   0.152   1.774  12.922  0.3341 -0.3444  0.1179
  226CH4    CH4  226   2.690   3.526   4.012  0.5748  0.0553  0.4716
  227CH4    CH4  227   0.444   3.418   9.204  0.2656 -0.2424 -0.6751
  228CH4    CH4  228   3.030   2.425   3.088  0.1681 -0.2238 -0.0709
  229CH4    CH4  229   1.442   2.212   6.560  0.3027  0.5414 -0.1971
  230CH4    CH4  230   1.856   2.488  10.632 -0.3281 -0.1642  0.9154
  231CH4    CH4  231   3.727   1.741   1.527  0.1249 -0.3959  0.0620
  232CH4    CH4  232   3.633   2.634   7.806  0.0142 -0.1061 -0.0396
  233CH4    CH4  233   3.617   3.524   5.646  0.0697  0.0699  0.0086
  234CH4    CH4  234   1.433   3.049  10.958  0.1235 -0.1938  0.1215
  235CH4    CH4  235   3.714   0.785   7.893 -0.1776  0.5303 -0.3123
  236CH4    CH4  236   2.475   1.143   9.945  0.0499 -0.5351  0.5354
  237CH4    CH4  237   2.582   2.655   6.166  0.1008 -0.2393  0.2415
  238CH4    CH4  238   1.320   3.503   9.589  0.4366  0.4550 -0.5196
  239CH4    CH4  239   0.545   0.701  11.371 -0.3389 -0.3152  0.5114
  240CH4    CH4  240   1.022   1.397   2.651  0.1447 -0.2397 -0.2735
  241CH4    CH4  241   3.547   2.760   7.415  0.3737 -0.2093 -0.2590
  242CH4    CH4  242   0.680   2.506  10.780  0.0135 -0.1371 -0.0643
  243CH4    CH4  243   1.355   3.655  11.017  0.1078 -0.0139  0.3252
  244CH4    CH4  244   2.078   0.087  13.076  0.4031 -0.7484 -0.2294
  245CH4    CH4  245   3.452   3.287   9.926  0.1978  0.1165  0.0304
  246CH4    CH4  246   2.897   1.825   4.159 -0.1738 -0.0965 -0.5699
  247CH4    CH4  247   0.677   1.335   7.330  0.1692 -0.0143  0.3703
  248CH4    CH4  248   3.017   0.475   8.456  0.1090 -0.0032 -0.1450
  249CH4    CH4  249   3.162   1.561  10.936  0.3795  0.0931  0.2052
  250CH4    CH4  250   1.894   3.037   9.057 -0.2848  0.5427  0.1526
  251CH4    CH4  251   0.702   0.685  12.381 -0.5652 -0.4285  0.2641
  252CH4    CH4  252   0.253   1.418   4.275 -0.4069  0.4396  0.0982
  253CH4    CH4  253   1.952   2.886   3.570  0.4428  0.3223 -0.1577
  254CH4    CH4  254   3.510   2.936  10.058 -0.2958 -0.2353  0.1447
  255CH4    CH4  255   3.520   1.293   0.356 -0.2777 -0.0749  0.1489
  256CH4    CH4  256   3.236   2.983  11.901  0.4385  0.0745  0.1755
  257CH4    CH4  257   2.949   2.364  13.017 -0.4726 -0.0790 -0.1484
  258CH4    CH4  258   2.268   2.386  10.756 -0.3845  0.0540 -0.1438
  259CH4    CH4  259   2.873   1.892   1.637  0.0688  0.2125 -0.4812
  260CH4    CH4  260   3.789   0.560   0.391  0.3244 -0.6314  0.1728
  261CH4    CH4  261   0.297   0.835   4.710 -0.1960 -0.2786 -0.2246
  262CH4    CH4  262   2.487   2.939   2.978 -0.0132 -0.2461  0.3033
  263CH4    CH4  263   1.729   1.901   2.039 -0.4933 -0.2349 -0.0099
  264CH4    CH4  264   0.170   1.213  11.287 -0.4412  0.0368 -0.4577
  265CH4    CH4  265   2.837   2.491  10.937 -0.4082 -0.0385  0.2804
  266CH4    CH4  266   3.228   0.807   9.752  0.1248 -0.3102 -0.3559
  267CH4    CH4  267   1.863   2.447   3.968 -0.1073  0.4530 -0.1190
  268CH4    CH4  268   0.016   0.839   6.993 -0.2661 -0.1736  0.1321
  269CH4    CH4  269   3.287   0.645   7.735  0.0129 -0.0400  0.0384
  270CH4    CH4  270   3.413   1.994   7.658 -0.5562 -0.3461  0.1548
  271CH4    CH4  271   1.108   2.137  12.401 -0.0117 -0.1658  0.0735
  272CH4    CH4  272   0.897   1.859  12.856 -0.1742  0.1384 -0.2154
  273CH4    CH4  273   1.930   2.130   0.343  0.0278 -0.1587  0.0643
  274CH4    CH4  274   3.223   2.668   4.496 -0.1274  0.2035 -0.0786
  275CH4    CH4  275   0.529   3.314   5.167  0.2223  0.4407  0.4416
  276CH4    CH4  276   3.537   2.290  11.871 -0.1129  0.0844  0.0462
  277CH4    CH4  277   0.201   1.542  13.275  0.4083 -0.0600  0.3140
  278CH4    CH4  278   2.485   0.900   0.364 -0.2013 -0.2089 -0.1196
  279CH4    CH4  279   3.291   0.427   9.781 -0.1205 -0.1083 -0.3664
  280CH4    CH4  280   2.559   3.374   4.354 -0.0822  0.0069 -0.0125
  281CH4    CH4  281   0.051   3.496   9.171 -0.2664  0.6144 -0.3328
  282CH4    CH4  282   0.091   3.538   4.085  0.1949  0.4693  0.0223
  283CH4    CH4  283   1.259   0.392   6.406 -0.4359 -0.2871  0.1962
  284CH4    CH4  284   0.255   2.859   5.708 -0.1102  0.2562  0.9618
  285CH4    CH4  285   2.755   2.790   3.467  0.3722 -0.3752  0.2913
  286CH4    CH4  286   1.593   2.470   6.161  0.1061  0.1632 -0.2451
  287CH4    CH4  287   0.675   2.569   6.471  0.1647  0.1199  0.3555
  288CH4    CH4  288   2.551   2.986   3.824  0.8202 -0.5602  0.1073
  289CH4    CH4  289   0.732   0.952  10.796  0.1539  0.2239  0.1189
  290CH4    CH4  290   0.005   1.527   4.796  0.2748  0.1450 -0.2599
  291CH4    CH4  291   1.838   3.580   4.354 -0.0909 -0.1766  0.0881
  292CH4    CH4  292   2.027   3.236   4.765 -0.0845 -0.0030  0.2516
  293CH4    CH4  293   2.493   1.895   3.793 -0.1388  0.3730  0.4337
  294CH4    CH4  294   1.108   2.376   3.347 -0.0487 -0.5657 -0.3016
  295CH4    CH4  295   3.300   2.798   1.123  0.3487 -0.3206  0.4678
  296CH4    CH4  296   0.014   2.140   1.694  0.3046  0.2473 -0.4022
  297CH4    CH4  297   3.298   0.899  12.310  0.3624 -0.1094  0.1230
  298CH4    CH4  298   1.902   0.621   1.150 -0.2909  0.0037 -0.0120
  299CH4    CH4  299   1.203   0.697  11.078  0.2874  0.2251 -0.2904
  300CH4    CH4  300   3.779   2.624   3.895 -0.2809 -0.0979 -0.2610
  301CH4    CH4  301   3.773   0.228   3.561  0.0352 -0.2722  0.0810
  302CH4    CH4  302   2.369   1.354   9.611  0.2582  0.0890 -0.1937
  303CH4    CH4  303   0.284   2.505   3.380  0.0005 -0.1432 -0.2980
  304CH4    CH4  304   0.926   3.038   8.339  0.1261 -0.0926 -0.2471
  305CH4    CH4  305   3.297   1.178   4.262 -0.0515 -0.5746  0.4352
  306CH4    CH4  306   1.879   2.832   7.264  0.2289 -0.3825 -0.4843
  307CH4    CH4  307   3.183   1.927   8.638  0.3983  0.0411 -0.0775
  308CH4    CH4  308   3.509   3.524  13.925  0.1908  0.2141 -0.0463
  309CH4    CH4  309   2.081   3.460   9.259 -0.1133  0.4545  0.1569
  310CH4    CH4  310   1.551   1.419   6.614 -0.0036  0.2425 -0.1743
  311CH4    CH4  311   2.566   0.357  11.631  0.4022 -0.1670  0.1901
  312CH4    CH4  312   2.536   0.768   8.851  0.8467 -0.0343  0.2196
  313CH4    CH4  313   1.904   2.532   4.412  0.0155  0.3914 -0.1217
  314CH4    CH4  314   1.319   0.025   7.847 -0.1422  0.4741 -0.1291
  315CH4    CH4  315   0.553   1.055  10.484 -0.3411 -0.7298 -0.0104
  316CH4    CH4  316   0.114   3.656   5.094 -0.3082 -0.6188 -0.2240
  317CH4    CH4  317   2.427   1.619  11.328 -0.1742  0.0919  0.1143
  318CH4    CH4  318   0.098   3.042   3.793  0.0982  0.0859 -0.0286
  319CH4    CH4  319   0.812   3.191   0.105 -0.3696 -0.6710 -0.5348
  320CH4    CH4  320   1.504   3.117   5.728  0.2815  0.0379  0.0834
  321CH4    CH4  321   0.101   0.625  13.315 -0.3595 -0.5792 -0.0469
  322CH4    CH4  322   3.540   0.567  10.139  0.0638  0.0541 -0.1467
  323CH4    CH4  323   0.854   3.631  13.842 -0.2254 -0.0250  0.1634
  324CH4    CH4  324   0.687   1.323   3.598 -0.2722  0.0013 -0.4529
  325CH4    CH4  325   3.727   1.475   7.022 -0.0587  0.4252  0.2052
  326CH4    CH4  326   2.151   3.743  11.168  0.2684 -0.0948  0.3122
  327CH4    CH4  327   1.526   2.535  13.948 -0.4678  0.1500  0.3703
  328CH4    CH4  328   1.579   3.145   1.232  0.0708 -0.1240 -0.2916
  329CH4    CH4  329   3.224   1.033   6.008 -0.4384 -0.0671  0.1678
  330CH4    CH4  330   3.435   0.885  12.849  0.3918 -0.3525 -0.0253
  331CH4    CH4  331   2.703   0.660   5.915  0.1060  0.2627  0.0680
  332CH4    CH4  332   2.622   3.651   2.945 -0.2049 -0.3667 -0.2515
  333CH4    CH4  333   3.220   0.134   7.351  0.1397 -0.2287 -0.1407
  334CH4    CH4  334   0.361   3.011   6.617  0.0613 -0.4038 -0.2600
  335CH4    CH4  335   1.229   2.897   8.530  0.5048  0.1681  0.1500
  336CH4    CH4  336   1.806   1.241   4.787  0.4767 -0.6371  0.2904
  337CH4    CH4  337   2.604   0.910  10.405 -0.3049 -0.0575  0.1141
  338CH4    CH4  338   0.786   0.593   0.528  0.2307  0.0236  0.4614
  339CH4    CH4  339   1.520   0.859   7.222 -0.5787 -0.3065  0.0759
  340CH4    CH4  340   1.268   2.504   5.959  0.5925  0.0723  0.0977
  341CH4    CH4  341   2.279   2.710   5.595 -0.5231 -0.3165  0.0557
  342CH4    CH4  342   0.860   3.422  11.507  0.2338 -0.2983  0.4059
  343CH4    CH4  343   3.615   1.167   1.055 -0.2196  0.2295 -0.3772
  344CH4    CH4  344   2.903   2.398  13.772  0.1745 -0.4289 -0.0867
  345CH4    CH4  345   3.135   0.422  10.241  0.1052 -0.6347 -0.0363
  346CH4    CH4  346   1.440   0.485   4.702 -0.1753  0.2249 -0.0944
  347CH4    CH4  347   2.640   0.765  10.826  0.1268  0.0764  0.2107
  348CH4    CH4  348   3.282   2.829   3.347  0.2135 -0.2861  0.4218
  349CH4    CH4  349   1.527   2.209   9.843  0.3642 -0.0027  0.5412
  350CH4    CH4  350   0.948   1.008  13.600  0.2040  0.0877  0.1289
  351CH4    CH4  351   1.035   1.993   0.853 -0.1393 -0.0891  0.1424
  352CH4    CH4  352   1.047   0.427  12.267 -0.0614  0.1310 -0.0932
  353CH4    CH4  353   3.117   2.708   3.912 -0.1104  0.2257 -0.1628
  354CH4    CH4  354   1.114   2.315   4.717 -0.1979 -0.0073 -0.7385
  355CH4    CH4  355   1.768   3.680   9.427  0.0455  0.2473  0.0171
  356CH4    CH4  356   3.503   1.799  12.699 -0.1470  0.3955  0.2537
  357CH4    CH4  357   2.159   0.364   4.719  0.0566  0.1984 -0.3288
  358CH4    CH4  358   1.806   2.209  12.690  0.0381  0.3704  0.1095
  359CH4    CH4  359   0.388   1.676   3.238 -0.2650  0.2027 -0.4280
  360CH4    CH4  360   3.196   1.623  13.162  0.0415 -0.4533 -0.1073
  361CH4    CH4  361   1.525   2.837   5.414  0.2488 -0.3386  0.4022
  362CH4    CH4  362   3.030   1.469   6.929 -0.3157 -0.1382 -0.3842
  363CH4    CH4  363   3.758   0.074  13.370  0.2247  0.1946  0.2942
  364CH4    CH4  364   1.695   3.719   2.020 -0.1571 -0.2670 -0.2818
  365CH4    CH4  365   3.465   0.819   5.402  0.0699 -0.1298  0.1197
  366CH4    CH4  366   0.472   0.329   4.978 -0.0746 -0.1840 -0.0799
  367CH4    CH4  367   2.332   3.052   6.504  0.5701  0.0738 -0.4683
  368CH4    CH4  368   3.576   0.588   2.950 -0.3541 -0.3784  0.1534
  369CH4    CH4  369   0.754   1.876   5.920  0.0879 -0.0726 -0.0478
  370CH4    CH4  370   0.757   0.842   3.959  0.4155 -0.3812 -0.1019
  371CH4    CH4  371   1.151   1.913   6.746 -0.3128 -0.1064  0.0609
  372CH4    CH4  372   1.755   3.377   8.391  0.2945  0.4394  0.0014
  373CH4    CH4  373   0.575   2.736  10.368  0.2907  0.2423 -0.1256
  374CH4    CH4  374   2.587   3.741  11.329  0.2141 -0.1795 -0.3017
  375CH4    CH4  375   1.754   2.236   5.798 -0.2335 -0.0758 -0.0723
  376CH4    CH4  376   2.107   3.537   0.315  0.0016 -0.0154  0.2079
  377CH4    CH4  377   1.814   1.773   1.563 -0.1712 -0.1080 -0.2633
  378CH4    CH4  378   3.742   1.394   8.957 -0.2147 -0.0634 -0.0228
  379CH4    CH4  379   0.848   1.713   3.337  0.2101 -0.0481  0.2697
  380CH4    CH4  380   1.741   0.374   4.450 -0.2957 -0.2795 -0.1213
  381CH4    CH4  381   2.978   2.500   6.158 -0.0773  0.6337  0.0831
  382CH4    CH4  382   3.724   1.288   6.137  0.3051  0.3926  0.3458
  383CH4    CH4  383   1.311   0.667   6.965 -0.3149  0.0894 -0.1424
  384CH4    CH4  384   2.605   3.252  11.606 -0.3108 -0.2306  0.2972
  385CH4    CH4  385   2.347   2.139   5.904  0.5262  0.3769 -0.1843
  386CH4    CH4  386   2.406   3.405   3.347  0.0141  0.2226 -0.0772
  387CH4    CH4  387   0.224   0.478  11.161  0.0584  0.0940  0.0827
  388CH4    CH4  388   3.184   3.102   5.326 -0.2879  0.3853  0.1785
  389CH4    CH4  389   1.717   1.520   5.391 -0.0671 -0.4200 -0.2202
  390CH4    CH4  390   3.045   2.392   8.275 -0.5018  0.0097  0.0226
  391CH4    CH4  391   3.418   3.511   4.185  0.2580 -0.1678  0.0702
  392CH4    CH4  392   2.157   3.219   8.820  0.1530  0.1722  0.0589
  393CH4    CH4  393   0.060   3.407  10.047 -0.2233 -0.0830  0.3362
  394CH4    CH4  394   3.126   0.884   5.673 -0.4664  0.2810  0.2114
  395CH4    CH4  395   0.661   2.072   8.097  0.4116 -0.5444 -0.0693
  396CH4    CH4  396   3.690   2.037   7.194 -0.2910 -0.1254  0.2094
  397CH4    CH4  397   3.658   3.076   4.211  0.2897 -0.2146 -0.3027
  398CH4    CH4  398   3.338   1.887   1.805 -0.6661 -0.1038 -0.3681
  399CH4    CH4  399   1.340   2.645   3.149  0.6243  0.7009 -0.0545
  400CH4    CH4  400   2.385   3.555   2.002 -0.1969  0.3844 -0.2853
  401CH4    CH4  401   1.097   0.268  10.991 -0.4295  0.0444 -0.1852
  402CH4    CH4  402   2.983   1.079  10.573  0.2808 -0.1324 -0.2226
  403CH4    CH4  403   2.581   1.989   5.012  0.0998 -0.2633 -0.0389
  404CH4    CH4  404   1.385   3.014   9.617  0.4085  0.4300 -0.4451
  405CH4    CH4  405   0.778   3.491   0.595  0.3465 -0.2130  0.0498
  406CH4    CH4  406   0.233   0.962  11.880  0.1806 -0.6061 -0.0836
  407CH4    CH4  407   2.241   0.022   1.629  0.1148 -0.5718 -0.0099
  408CH4    CH4  408   3.543   0.638   9.046 -0.1255 -0.1559  0.1422
  409CH4    CH4  409   0.770   2.774   7.455  0.1306  0.2143 -0.0464
  410CH4    CH4  410   1.952   2.896  10.200  0.4186  0.0960  0.1889
  411CH4    CH4  411   0.357   2.343   7.864 -0.2231 -0.1447 -0.0858
  412CH4    CH4  412   2.919   0.064   4.192  0.0286 -0.0302  0.1568
  413CH4    CH4  413   2.548   3.693   9.284  0.3989  0.1572  0.2191
  414CH4    CH4  414   3.192   3.238   3.878 -0.4603 -0.3611  0.2367
  415CH4    CH4  415   0.732   2.741  11.480  0.1311  0.1729 -0.3937
  416CH4    CH4  416   3.750   3.255   4.795  0.0956 -0.2083  0.0194
  417CH4    CH4  417   0.649   0.318  13.971  0.5172 -0.7886 -0.1721
  418CH4    CH4  418   3.268   2.070   4.903  0.1160 -0.0630  0.1288
  419CH4    CH4  419   1.680   3.758   6.833 -0.0209 -0.4735  0.0196
  420CH4    CH4  420   2.177   1.531  10.140  0.3265  0.1302 -0.0510
  421CH4    CH4  421   3.613   2.053  10.887 -0.3843 -0.2036 -0.5779
  422CH4    CH4  422   0.219   3.569   0.984  0.3122 -0.0846  0.8296
  423CH4    CH4  423   3.499   2.612   9.847 -0.0703 -0.4014  0.0746
  424CH4    CH4  424   1.108   2.989   7.011 -0.1448 -0.2184 -0.0256
  425CH4    CH4  425   0.275   2.114  11.729 -0.1309  0.2661 -0.2084
  426CH4    CH4  426   1.104   3.187  10.096 -0.1915  0.2986 -0.5700
  427CH4    CH4  427   0.583   1.392   6.952 -0.1919 -0.3917  0.2756
  428CH4    CH4  428   1.300   3.213   5.154  0.4914  0.6074  0.4155
  429CH4    CH4  429   1.555   1.994   0.353  0.6833  0.1461 -0.0909
  430CH4    CH4  430   2.537   1.920   8.672 -0.2360  0.2378  0.8411
  431CH4    CH4  431   0.378   2.578  12.272 -0.5509  0.4490  0.1952
  432CH4    CH4  432   1.658   0.505   1.570  0.4004  0.0291 -0.0993
  433CH4    CH4  433   0.872   2.328  11.126 -0.3225  0.1518 -0.2139
  434CH4    CH4  434   3.670   3.282   8.585  0.2976 -0.1626  0.3035
  435CH4    CH4  435   2.676   1.932  13.272 -0.1165  0.2893 -0.2175
  436CH4    CH4  436   3.353   1.162   6.369 -0.1082  0.2821  0.2573
  437CH4    CH4  437   2.786   2.514  11.434 -0.0930 -0.0841  0.0698
  438CH4    CH4  438   2.480   1.984   1.008 -0.2543 -0.6239  0.1535
  439CH4    CH4  439   1.852   3.405   1.326 -0.0755 -0.1019 -0.0659
  440CH4    CH4  440   1.282   2.890   1.237 -0.0586 -0.0225  0.3367
  441CH4    CH4  441   3.646   0.701   3.414 -0.0257  0.2056  0.2814
  442CH4    CH4  442   2.116   3.184   1.693  0.0814 -0.0538  0.4747
  443CH4    CH4  443   0.033   2.587  10.377  0.2075 -0.1701 -0.0177
  444CH4    CH4  444   3.381   1.633   7.176  0.2008  0.2946 -0.2411
  445CH4    CH4  445   3.170   0.446  12.481  0.0515  0.2323  0.8434
  446CH4    CH4  446   3.192   1.072   9.397  0.0877  0.0804 -0.2469
  447CH4    CH4  447   2.460   1.380   7.755 -0.4662  0.4363 -0.0112
  448CH4    CH4  448   0.476   0.687   2.415  0.6423 -0.1542 -0.5901
  449CH4    CH4  449   1.951   0.494   7.130 -0.2310 -0.1135  0.4116
  450CH4    CH4  450   1.854   2.578   3.259  0.4406 -0.1850 -0.3006
  451CH4    CH4  451   2.786   1.972   9.471 -0.3387 -0.4284 -0.3583
  452CH4    CH4  452   3.579   1.186   7.322  0.4415  0.0311  0.3170
  453CH4    CH4  453   1.241   3.504   4.126  0.1396  0.7239  0.0113
  454CH4    CH4  454   3.064   1.434   7.419  0.3628  0.1793 -0.0412
  455CH4    CH4  455   3.175   0.513  10.664 -0.6418 -0.1765  0.5696
  456CH4    CH4  456   1.115   2.111   2.273 -0.0762  0.5436  0.2810
  457CH4    CH4  457   2.080   0.692   6.213 -0.0444  0.0897 -0.4540
  458CH4    CH4  458   2.066   3.261   6.173 -0.0644  0.3424 -0.1155
  459CH4    CH4  459   0.461   3.678   4.213  0.1189  0.3468  0.0368
  460CH4    CH4  460   2.200   3.106   0.399 -0.4348  0.2438  0.2495
  461CH4    CH4  461   1.689   0.133   4.956 -0.2563 -0.3969 -0.3306
  462CH4    CH4  462   2.303   3.380  10.884  0.4536  0.3234  0.2032
  463CH4    CH4  463   3.464   0.246   1.718 -0.6152 -0.0086 -0.2307
  464CH4    CH4  464   3.409   2.863   7.089 -0.3139  0.1011 -0.1625
  465CH4    CH4  465   2.448   1.356   4.462  0.3387  0.3176  0.4312
  466CH4    CH4  466   2.511   3.131   8.643 -0.0216 -0.3340 -0.2897
  467CH4    CH4  467   3.231   1.132   7.603  0.1383 -0.1663 -0.1549
  468CH4    CH4  468   0.801   3.156   3.604  0.0850 -0.1955  0.2857
  469CH4    CH4  469   2.501   2.324   1.791  0.3928  0.3821 -0.4200
  470CH4    CH4  470   0.686   0.891   9.427  0.2911  0.1927  0.1524
  471CH4    CH4  471   0.598   1.166   4.167  0.3239 -0.2169  0.0436
  472CH4    CH4  472   3.702   1.815   7.501  0.1308  0.0748 -0.1581
  473CH4    CH4  473   1.688   0.892   6.379 -0.0004  0.4181 -0.3886
  474CH4    CH4  474   1.223   0.322  11.391 -0.5557 -0.2882  0.4116
  475CH4    CH4  475   1.944   3.653   4.755  0.3505  0.3763 -0.1638
  476CH4    CH4  476   1.453   2.537  13.368  0.1895  0.3195 -0.1270
  477CH4    CH4  477   0.416   2.540   6.964  0.0515 -0.0773 -0.1110
  478CH4    CH4  478   1.148   0.909   6.032 -0.4571  0.1547  0.2105
  479CH4    CH4  479   1.906   1.343   1.730 -0.1536  0.1840 -0.3267
  480CH4    CH4  480   0.630   0.463  13.286 -0.1720 -0.0367  0.0792
  481CH4    CH4  481   1.223   2.992   9.002  0.3261 -0.0633 -0.4380
  482CH4    CH4  482   1.041   1.647   0.370  0.1449  0.2514  0.0668
  483CH4    CH4  483   3.368   1.035  10.750  0.4204 -0.2208 -0.0640
  484CH4    CH4  484   0.473   2.339   0.936  0.1822 -0.1914 -0.3178
  485CH4    CH4  485   0.557   1.359   1.290  0.2068  0.1695  0.5288
  486CH4    CH4  486   3.512   2.525  12.455  0.3086 -0.2562  0.2722
  487CH4    CH4  487   1.044   2.438   6.464 -0.1403 -0.4434 -0.1780
  488CH4    CH4  488   2.503   1.872   6.379  0.1187 -0.0542 -0.4822
  489CH4    CH4  489   2.997   3.184   8.235  0.0403  0.0356 -0.1923
  490CH4    CH4  490   0.951   3.436   5.334 -0.5137  0.0135  0.1516
  491CH4    CH4  491   0.345   2.935   9.526 -0.2433 -0.2286 -0.4187
  492CH4    CH4  492   1.760   3.746   3.833  0.2915 -0.2344 -0.2311
  493CH4    CH4  493   3.477   1.219   1.558 -0.1444  0.0050 -0.1566
  494CH4    CH4  494   1.130   2.344   0.438  0.2080  0.0000  0.2785
  495CH4    CH4  495   1.176   2.206   1.770 -0.2086  0.1930  0.1507
  496CH4    CH4  496   3.180   3.756   3.894 -0.3531 -0.4488  0.1343
  497CH4    CH4  497   1.579   3.424   3.486  0.1164  0.2265 -0.2512
  498CH4    CH4  498   2.654   2.385   8.212 -0.0180 -0.0548  0.3052
  499CH4    CH4  499   1.158   0.722   8.038  0.3731 -0.1549 -0.1334
  500CH4    CH4  500   2.669   2.630   8.750  0.2748  0.0950 -0.2886
   3.80000   3.80000  14.00000
