title		= CO2 in water
; Run parameters
integrator	= md			; leap-frog integrator
nsteps		= 4000000		; 1 * 4000000 = 4000 ps = 4 ns
dt		    = 0.001		; 1 fs
; Output control
nstxout		        = 10000		; save coordinates every 10.0 ps
nstvout		        = 0		; save velocities every 10.0 ps
nstenergy	        = 0		; save energies every 10.0 ps
nstlog		        = 10000		; update log file every 10.0 ps
nstxout-compressed  = 5000      	; save compressed coordinates every 10.0 ps
                                	; nstxout-compressed replaces nstxtcout
compressed-x-grps   = System    	; replaces xtc-grps
; Bond parameters
continuation	        = yes		; Restarting after NPT 
constraint_algorithm    = lincs		; holonomic constraints 
constraints	        = h-bonds	; all bonds (even heavy atom-H bonds) constrained
lincs_iter	        = 2		    ; accuracy of LINCS
lincs_order             = 4		    ; also related to accuracy
; Neighborsearching
cutoff-scheme   = Verlet
verlet-buffer-tolerance = 8.6e-06
ns_type		    = grid		; search neighboring grid cells
nstlist		    = 10	    ; 20 fs, largely irrelevant with Verlet scheme
rcoulomb	    = 1.2		; short-range electrostatic cutoff (in nm)
rvdw		    = 1.2		; short-range van der Waals cutoff (in nm)
; Electrostatics
coulombtype	    = PME		; Particle Mesh Ewald for long-range electrostatics
pme_order	    = 4		    ; cubic interpolation
fourierspacing	= 0.16		; grid spacing for FFT
; Temperature coupling is on
tcoupl		= nose-hoover		; modified Berendsen thermostat
tc-grps		= System		; two coupling groups - more accurate
tau_t		= 0.2			; time constant, in ps
ref_t		= 298			; reference temperature, one for each group, in K
; Pressure coupling is on
pcoupl		= no
; Periodic boundary conditions
pbc		= xyz		; 3-D PBC
; Dispersion correction
DispCorr	= EnerPres	; account for cut-off vdW scheme
; Velocity generation
gen_vel		= no		; Velocity generation is off 

