[ moleculetype ]
; name  nrexcl
CO2	3

[ atoms ]
;   nr    type   resnr  residu    atom    cgnr        charge          mass
     1       opls_271       1     CO2       C_3     1    0.700
     2       opls_272       1     CO2       O2      1   -0.350 
     3       opls_272       1     CO2       O2      1   -0.350	
   
[ bonds ]
;  ai    aj funct           c0           c1
1     2
1     3
2     1
3     1

[ angles ]
;  ai    aj    ak funct           c0        c1
 2     1      3        1       180      468.61
