[ moleculetype ]
; Name            nrexcl
H2                  3

[ atoms ]
;   nr       type  resnr residue  atom   cgnr     charge       mass  typeB    chargeB      massB
     1       opls_004       1     H2       H      1   0.468
     2       opls_966       1     H2       MH2    1  -0.936                           
     3       opls_004       1     H2       H      1   0.468       
                
[ bonds ]
;  ai    aj funct

[ pairs ]
;  ai    aj funct

[ angles ]
;  ai    aj    ak funct

[ dihedrals ]
;  ai    aj    ak    al funct

[ constraints ]
 1     3     1	   0.074
[ virtual_sitesn ]
; Vsite from			funct	a		b
2    2    1    3
