Gas In Water in water
27670
    1NA      NA    1   2.921   2.098   2.422  0.0636  0.5150  0.1167
    2NA      NA    2   4.132   5.524   0.791 -0.1599  0.2740  0.1090
    3NA      NA    3   5.317   3.235   1.765  0.3778 -0.4050  0.0303
    4NA      NA    4   1.789   2.425   4.404 -0.0364  0.2056 -0.0696
    5NA      NA    5   1.948   4.938   5.786 -0.4976  0.2604 -0.1718
    6NA      NA    6   2.477   0.098   0.024 -0.0479 -0.0647 -0.3277
    7NA      NA    7   5.693   2.288   4.976  0.5083 -0.0743  0.1660
    8NA      NA    8   2.042   4.124   2.832 -0.3882  0.0069 -0.1412
    9NA      NA    9   5.063   0.830   0.519  0.0786 -0.2130 -0.3284
   10NA      NA   10   3.450   1.138   5.227 -0.4445  0.0046  0.0365
   11NA      NA   11   3.493   5.921   1.498  0.2716 -0.0167  0.1031
   12NA      NA   12   0.516   0.129   3.818 -0.5696  0.3458  0.3094
   13NA      NA   13   5.735   5.555   4.355 -0.3239 -0.4320  0.0284
   14NA      NA   14   0.467   2.589   0.594 -0.0391 -0.2836 -0.3672
   15NA      NA   15   0.834   2.754   4.117 -0.1356 -0.3834  0.0509
   16NA      NA   16   0.987   4.857   3.932 -0.4243 -0.0305  0.4096
   17NA      NA   17   4.296   2.295   1.963 -0.1802  0.7314 -0.9997
   18NA      NA   18   4.510   1.230   2.561  0.0258  0.4944  0.4421
   19NA      NA   19   2.459   3.554   2.139 -0.5077 -0.3991  0.7779
   20NA      NA   20   5.880   1.500   4.218 -0.2631 -0.3852  0.4499
   21NA      NA   21   5.725   2.177   3.626 -0.1865  0.5933 -0.2685
   22NA      NA   22   2.525   2.995   0.602 -0.0641  0.4815 -0.3034
   23NA      NA   23   3.252   1.106   3.360 -0.0514 -0.0864  0.0010
   24NA      NA   24   4.972   0.107   2.963 -0.2033 -0.4167  0.4634
   25NA      NA   25   2.364   5.116   2.354 -0.2312  0.4700  0.1788
   26NA      NA   26   5.093   3.975   3.616  0.3528  0.0038 -0.0671
   27NA      NA   27   2.288   4.866   5.266 -0.5275 -0.3026  0.1927
   28NA      NA   28   2.768   0.905   0.554 -0.3811  0.3196  0.0091
   29NA      NA   29   2.133   1.621   1.227  0.1524 -0.2320 -0.0784
   30NA      NA   30   1.314   0.135   2.151 -0.4399 -0.5880 -0.1803
   31NA      NA   31   4.558   3.551   2.803  0.1986  0.1023 -0.0892
   32NA      NA   32   2.614   1.296   0.913 -0.3391  0.1259 -0.2202
   33NA      NA   33   4.869   4.972   4.473 -0.1548 -0.1637 -0.5001
   34NA      NA   34   0.834   4.553   4.539  0.1431  0.1254 -0.2975
   35NA      NA   35   0.509   2.101   2.176 -0.5798  0.3495 -0.1794
   36NA      NA   36   4.660   0.367   1.882  0.5017  0.0317  0.3554
   37NA      NA   37   1.760   0.760   3.342  0.7377  0.0441 -0.2587
   38NA      NA   38   5.440   2.770   2.073 -0.0271  0.0764 -0.4586
   39NA      NA   39   0.752   3.443   4.503 -0.0316 -0.2360  0.2095
   40NA      NA   40   4.836   1.733   4.616  0.2882  0.7072 -0.0111
   41NA      NA   41   3.726   1.964   5.369  0.4981  0.4084  0.3559
   42NA      NA   42   0.739   4.401   3.744 -0.0851 -0.3489 -0.1915
   43NA      NA   43   5.277   3.419   4.818  0.3070  0.1649 -0.6384
   44NA      NA   44   2.233   0.345   2.271  0.2263  0.6691 -0.0332
   45NA      NA   45   2.490   4.853   1.042  0.0035  0.0914 -0.4515
   46NA      NA   46   4.358   2.343   3.339  0.1975 -0.0278  0.9640
   47NA      NA   47   0.300   5.960   0.372 -0.3372  0.1105  0.0062
   48NA      NA   48   2.192   0.513   1.273 -0.2563  0.1775 -0.0919
   49NA      NA   49   0.594   4.774   1.867 -0.1043  0.0556  0.0665
   50NA      NA   50   4.769   4.624   0.330  0.3988  0.1067  0.0784
   51NA      NA   51   0.119   3.983   5.454 -0.3917 -0.0271 -0.2893
   52NA      NA   52   5.617   0.392   3.984 -0.0245  0.8591  0.0082
   53NA      NA   53   3.388   4.812   3.032 -0.3466 -0.4760 -0.1307
   54NA      NA   54   1.512   1.282   5.331  0.4269  0.4700  0.0537
   55NA      NA   55   1.750   5.299   4.109  0.4156 -0.1169 -0.0287
   56NA      NA   56   3.762   1.671   3.812  0.2235  0.3310  0.0372
   57NA      NA   57   2.002   2.315   2.730  0.7829 -0.8109  0.4203
   58NA      NA   58   2.680   5.678   1.545  0.3409 -0.7350  0.5276
   59NA      NA   59   0.887   1.287   0.379 -0.0750 -0.3278  0.1453
   60NA      NA   60   2.257   0.408   3.280  0.0646  0.4581 -0.1847
   61NA      NA   61   4.402   3.599   5.603 -0.8598  0.2437 -0.0607
   62NA      NA   62   2.470   1.076   5.683  0.4115 -0.3859  0.2241
   63NA      NA   63   4.281   1.681   0.707  0.1833 -0.2546  0.5959
   64NA      NA   64   5.355   1.188   5.316  0.0966 -0.0694 -0.1566
   65NA      NA   65   5.096   0.400   0.901  0.1079 -0.2326  0.4842
   66NA      NA   66   0.771   3.883   5.414  0.4704 -0.0321 -0.2068
   67NA      NA   67   2.022   0.435   5.021 -0.1138 -0.0546 -0.2489
   68NA      NA   68   5.307   4.275   1.666  0.2592 -0.0888  0.6140
   69NA      NA   69   3.194   4.699   0.893 -0.2214 -0.0866 -0.3281
   70NA      NA   70   5.252   2.296   5.465 -0.3125 -0.1368 -0.1034
   71NA      NA   71   3.038   1.302   1.651 -0.5811 -0.7317  0.3592
   72NA      NA   72   1.715   5.142   5.032  0.1977  0.0989 -0.0651
   73NA      NA   73   3.328   3.084   2.402 -0.6273 -0.3450  0.0804
   74NA      NA   74   5.971   1.033   2.131 -0.4477  0.0709 -0.2003
   75NA      NA   75   1.973   3.725   5.556 -0.4042 -0.4220  0.2712
   76NA      NA   76   3.658   5.361   4.956 -0.5340  0.1242  0.4483
   77NA      NA   77   4.249   4.925   0.224  0.0078  0.1212 -0.1901
   78NA      NA   78   5.953   3.923   3.821 -0.1725 -0.0837  0.1085
   79NA      NA   79   4.908   3.293   0.366  0.6436  0.1381 -0.3797
   80NA      NA   80   1.438   0.044   1.003  0.2487 -0.7788  0.1159
   81NA      NA   81   3.324   3.864   3.590 -0.2562 -0.0985  0.2109
   82NA      NA   82   0.454   4.026   3.238 -0.0510  0.3828  0.0446
   83NA      NA   83   4.100   0.695   3.633 -0.4041 -0.4851 -0.0728
   84NA      NA   84   0.352   2.984   2.132 -0.0676  0.3258 -0.3519
   85NA      NA   85   5.803   3.711   4.540  0.3266  0.2829  0.4868
   86NA      NA   86   2.645   1.451   4.485  0.1430 -0.3063 -0.3783
   87NA      NA   87   4.011   2.697   5.253  0.0690 -0.1802  0.2172
   88NA      NA   88   4.145   0.442   0.868  0.3413 -0.0030  0.1326
   89NA      NA   89   0.572   5.964   2.781  0.0690 -0.1352  0.2281
   90NA      NA   90   2.361   2.392   1.680  0.1547  0.4176  0.6002
   91NA      NA   91   2.298   1.050   3.426  0.3035  0.2013 -0.0757
   92NA      NA   92   5.744   3.160   0.735 -0.5303  0.1731 -0.2257
   93NA      NA   93   5.834   1.502   2.039  0.1287 -0.1359  0.2564
   94NA      NA   94   5.172   3.590   4.044 -0.3689  0.4043  0.5393
   95NA      NA   95   0.562   0.357   5.139  0.4777  0.7401 -0.1053
   96NA      NA   96   1.905   1.454   2.798  0.0336 -0.3834  0.0085
   97NA      NA   97   4.738   3.866   1.087 -0.1297  0.3143  0.4940
   98NA      NA   98   5.815   3.580   2.218 -0.3509  0.0259  0.3292
   99NA      NA   99   3.804   3.318   1.509 -0.4943  0.0996  0.2190
  100NA      NA  100   3.633   4.335   0.368  0.7727  0.4067  0.1903
  101NA      NA  101   2.613   3.991   4.146  0.0307  0.1923 -0.5904
  102NA      NA  102   0.235   0.246   2.475 -0.5374 -0.2059 -0.3718
  103NA      NA  103   2.894   4.450   2.614 -0.3297  0.3774  0.0920
  104NA      NA  104   4.769   5.074   5.052  0.1709 -0.2396 -0.2194
  105NA      NA  105   0.929   4.816   2.672  0.5078 -0.4500  0.3612
  106NA      NA  106   5.389   2.480   1.316 -0.1052 -0.0259  0.1180
  107NA      NA  107   4.712   2.543   1.254  0.5957  0.0548 -0.0178
  108NA      NA  108   4.021   4.214   5.270  0.1176  0.3518  0.7395
  109NA      NA  109   0.325   0.657   0.827 -0.4957 -0.0797 -0.1818
  110NA      NA  110   0.027   2.632   1.306  0.0640  0.0807  0.7028
  111NA      NA  111   1.352   2.531   2.157 -0.0387 -0.2363 -0.1138
  112NA      NA  112   0.847   4.435   0.825 -0.1099 -0.3650  0.1994
  113NA      NA  113   5.021   5.348   5.780  0.2622  0.1887  0.2154
  114NA      NA  114   0.310   1.390   4.703  0.3268  0.5182 -0.0849
  115NA      NA  115   1.712   5.790   3.200 -0.0338 -0.0606 -0.0569
  116NA      NA  116   1.425   3.097   3.136 -0.2376  0.4800  0.1094
  117NA      NA  117   4.540   3.393   3.209 -0.3823  0.3927  0.2695
  118NA      NA  118   3.035   5.496   0.890  0.3384  0.4593 -0.0010
  119NA      NA  119   0.332   4.679   1.243 -0.2553 -0.0888 -0.0060
  120NA      NA  120   0.659   4.537   0.099 -0.0270  0.1733 -0.4795
  121NA      NA  121   2.726   1.606   0.034  0.3213  0.2613 -0.2187
  122NA      NA  122   0.298   0.866   5.787 -0.1681  0.1199  0.2790
  123NA      NA  123   2.574   5.367   3.530 -0.3254 -0.0307  0.9305
  124NA      NA  124   3.818   3.566   4.061  0.4570 -0.2920 -0.3548
  125NA      NA  125   2.508   1.967   0.460 -0.0038 -0.2612  0.1238
  126NA      NA  126   1.569   4.455   0.667  0.3603 -0.1460 -0.4000
  127NA      NA  127   0.336   3.722   0.258 -0.3626 -0.2178 -0.4138
  128NA      NA  128   5.410   2.950   4.027 -0.2014 -0.2768 -0.2521
  129NA      NA  129   5.724   0.293   1.259  0.8892 -0.0349  0.6779
  130NA      NA  130   1.984   1.739   4.835  0.2859 -0.3452 -0.2126
  131NA      NA  131   1.636   0.053   4.274  0.9199 -0.1521  0.0911
  132NA      NA  132   2.255   3.043   2.276 -0.0715  0.1206 -0.3083
  133NA      NA  133   0.170   3.384   3.732  0.1766 -0.1539 -0.2029
  134NA      NA  134   5.180   5.924   4.927  0.2373 -0.2053  0.3863
  135NA      NA  135   3.425   5.222   2.537 -0.0621  0.2591 -0.3049
  136CL      CL  136   2.866   1.423   0.448 -0.3815 -0.2900  0.3032
  137CL      CL  137   1.993   4.601   5.537  0.1263 -0.4580 -0.1167
  138CL      CL  138   5.801   2.948   1.179  0.2417  0.3717  0.3382
  139CL      CL  139   0.915   2.554   1.881  0.2147 -0.1121 -0.1070
  140CL      CL  140   5.708   3.245   3.757  0.6963 -0.1024 -0.4640
  141CL      CL  141   2.523   2.686   3.733  0.3152 -0.0634 -0.2688
  142CL      CL  142   5.742   2.464   1.759 -0.0099  0.5721  0.0707
  143CL      CL  143   1.918   1.661   3.519  0.0620  0.3256 -0.2485
  144CL      CL  144   4.224   1.952   3.875  0.3970 -0.1141 -0.2883
  145CL      CL  145   5.321   4.913   4.367 -0.0942  0.1454  0.0091
  146CL      CL  146   0.471   2.856   2.367  0.1797 -0.2183 -0.1517
  147CL      CL  147   2.181   1.911   1.890 -0.2513 -0.1831  0.0185
  148CL      CL  148   1.509   3.698   0.015  0.1627  0.2903 -0.2918
  149CL      CL  149   0.488   5.200   3.951 -0.1296 -0.0741 -0.1056
  150CL      CL  150   5.373   1.344   1.778  0.3286 -0.1172  0.0345
  151CL      CL  151   1.934   0.286   4.621  0.0921 -0.1956  0.1391
  152CL      CL  152   1.994   3.195   2.881 -0.0849  0.1803 -0.5866
  153CL      CL  153   4.778   3.297   0.976 -0.0927  0.2524  0.0398
  154CL      CL  154   5.738   1.181   4.986 -0.2030  0.3701  0.1972
  155CL      CL  155   5.693   2.291   5.257 -0.6195 -0.1348 -0.0509
  156CL      CL  156   3.999   5.538   3.842 -0.1737 -0.0816  0.2120
  157CL      CL  157   0.650   1.350   5.271  0.3972  0.1239 -0.3324
  158CL      CL  158   4.898   5.442   5.163  0.1986 -0.0877 -0.2133
  159CL      CL  159   5.684   3.143   2.312 -0.4081 -0.0866 -0.1962
  160CL      CL  160   5.144   3.973   0.844 -0.4576 -0.1565 -0.3642
  161CL      CL  161   2.370   3.161   1.338  0.3715 -0.1871 -0.2719
  162CL      CL  162   3.257   2.065   3.280 -0.2383  0.1009 -0.0837
  163CL      CL  163   3.067   0.037   1.164  0.0463  0.2856  0.2719
  164CL      CL  164   0.474   0.810   0.162  0.0675 -0.2398 -0.4178
  165CL      CL  165   1.540   0.178   0.607 -0.0454  0.3505 -0.1882
  166CL      CL  166   0.571   3.848   5.661 -0.6429 -0.1854  0.1887
  167CL      CL  167   1.827   0.691   2.804  0.0923  0.0501  0.2050
  168CL      CL  168   4.706   2.704   5.463  0.0377 -0.4846  0.3830
  169CL      CL  169   3.258   0.425   2.170  0.2233  0.1416 -0.2015
  170CL      CL  170   4.081   4.653   2.703  0.0520 -0.2728 -0.0794
  171CL      CL  171   2.285   0.071   5.127  0.0868 -0.0049  0.0969
  172CL      CL  172   3.244   4.193   2.410 -0.0056 -0.5116  0.1263
  173CL      CL  173   4.580   2.005   2.931 -0.2766  0.4616 -0.2487
  174CL      CL  174   4.105   4.986   0.696  0.2172  0.2343  0.4300
  175CL      CL  175   4.385   1.313   0.932  0.4436 -0.0948 -0.6413
  176CL      CL  176   1.546   4.842   0.528 -0.0648 -0.2112 -0.2290
  177CL      CL  177   4.685   4.638   5.747 -0.2812 -0.3956  0.1496
  178CL      CL  178   5.487   0.651   1.693 -0.0272 -0.1268  0.0454
  179CL      CL  179   2.628   4.896   4.965  0.1928 -0.1952  0.0774
  180CL      CL  180   0.606   2.177   4.668 -0.1393 -0.0861 -0.0364
  181CL      CL  181   1.530   3.711   2.105  0.3275  0.1620 -0.2417
  182CL      CL  182   0.007   2.279   4.912  0.1157 -0.1026 -0.1184
  183CL      CL  183   1.978   0.871   3.476  0.1524  0.3456  0.1536
  184CL      CL  184   1.257   5.038   4.738  0.3449 -0.6511 -0.0308
  185CL      CL  185   3.445   4.153   3.010  0.0289  0.2053 -0.2270
  186CL      CL  186   5.276   3.197   2.058  0.1330  0.3017 -0.2672
  187CL      CL  187   2.305   0.967   0.749 -0.1238 -0.0906  0.1354
  188CL      CL  188   0.121   2.956   4.471  0.2537 -0.3846  0.1892
  189CL      CL  189   2.903   4.170   0.098 -0.1697  0.0931 -0.2985
  190CL      CL  190   1.661   4.779   2.861  0.1614  0.3120 -0.2219
  191CL      CL  191   0.606   4.802   1.180  0.1349 -0.0753  0.0380
  192CL      CL  192   4.461   4.078   5.048  0.0239 -0.3355  0.0125
  193CL      CL  193   2.868   4.592   1.228  0.3772  0.2221 -0.1492
  194CL      CL  194   4.423   2.441   0.660  0.2866 -0.2332 -0.1650
  195CL      CL  195   4.351   4.792   3.713  0.3887  0.2417  0.0727
  196CL      CL  196   4.953   3.239   2.843 -0.0379  0.0485 -0.1451
  197CL      CL  197   3.641   1.245   3.755 -0.2138 -0.2000 -0.4300
  198CL      CL  198   2.225   2.226   3.148 -0.4017  0.1595  0.2372
  199CL      CL  199   2.600   3.398   0.801 -0.2904  0.1670  0.0735
  200CL      CL  200   3.994   0.718   5.301  0.2769  0.2534 -0.0339
  201CL      CL  201   4.960   1.594   3.106 -0.3786 -0.0828  0.3233
  202CL      CL  202   3.245   2.053   2.077 -0.2774  0.1139 -0.0304
  203CL      CL  203   2.668   5.307   0.704  0.0226 -0.1639  0.0049
  204CL      CL  204   2.883   3.424   5.337  0.1864 -0.1362 -0.1229
  205CL      CL  205   0.903   5.101   2.792 -0.1100 -0.0869  0.0408
  206CL      CL  206   1.997   1.471   2.289  0.6436 -0.3668  0.8107
  207CL      CL  207   0.146   0.917   3.420 -0.0935  0.2584  0.3262
  208CL      CL  208   3.699   3.554   0.160  0.0368  0.3767  0.6120
  209CL      CL  209   3.809   2.359   1.798 -0.0599 -0.3035  0.1192
  210CL      CL  210   4.048   0.024   1.468 -0.1095 -0.0591 -0.1977
  211CL      CL  211   2.387   5.571   2.996 -0.3226 -0.0066 -0.0350
  212CL      CL  212   1.354   1.965   2.292 -0.0245 -0.1077  0.0558
  213CL      CL  213   3.414   4.640   4.021 -0.2986  0.0750 -0.3886
  214CL      CL  214   0.026   0.431   0.024  0.2103 -0.2850  0.0837
  215CL      CL  215   1.467   4.344   4.418  0.2779  0.4394  0.0571
  216CL      CL  216   5.489   4.159   3.801 -0.3201 -0.0369  0.0945
  217CL      CL  217   1.257   5.030   4.032  0.2059 -0.1078 -0.1732
  218CL      CL  218   2.338   1.644   0.706 -0.3882  0.2362 -0.2004
  219CL      CL  219   1.391   5.836   4.628  0.1741 -0.1155  0.1357
  220CL      CL  220   1.208   3.278   3.048  0.0298  0.1493  0.1326
  221CL      CL  221   3.533   4.874   1.176 -0.2048 -0.0843  0.0883
  222CL      CL  222   0.034   3.860   4.682  0.3252  0.2760 -0.2069
  223CL      CL  223   0.981   0.278   3.974  0.2682 -0.5459 -0.1590
  224CL      CL  224   4.990   0.271   4.684  0.4583  0.2002  0.2566
  225CL      CL  225   2.993   5.576   4.436  0.2425 -0.1146  0.2600
  226CL      CL  226   0.042   2.448   0.881 -0.2534  0.1080 -0.0112
  227CL      CL  227   3.848   2.892   4.668 -0.2312  0.0918  0.1550
  228CL      CL  228   0.586   3.490   0.576 -0.4023  0.1170  0.2628
  229CL      CL  229   4.508   4.570   2.881  0.7562 -0.0864 -0.0556
  230CL      CL  230   2.106   0.577   5.430 -0.5029 -0.3756  0.0579
  231CL      CL  231   4.088   5.259   2.643  0.8259  0.0795 -0.1094
  232CL      CL  232   4.775   4.011   2.037 -0.1045 -0.3270  0.2330
  233CL      CL  233   0.716   5.872   1.899  0.4528  0.3163 -0.0390
  234CL      CL  234   3.047   1.067   0.193 -0.1372 -0.2848  0.1434
  235CL      CL  235   2.355   5.436   1.917 -0.2648 -0.3938  0.2211
  236CL      CL  236   3.125   1.256   4.251  0.3237  0.2156  0.1771
  237CL      CL  237   4.414   0.336   1.426  0.0112 -0.1761 -0.1584
  238CL      CL  238   5.098   3.808   4.541 -0.6870  0.2691 -0.1408
  239CL      CL  239   1.686   3.281   3.424  0.3848  0.3044 -0.0436
  240CL      CL  240   3.858   4.747   0.286  0.4124  0.7185  0.0896
  241CL      CL  241   1.722   4.557   2.049 -0.2883 -0.2681  0.1590
  242CL      CL  242   3.594   0.892   5.206 -0.0885 -0.0856 -0.3255
  243CL      CL  243   5.961   0.946   1.655  0.4264 -0.1145 -0.0758
  244CL      CL  244   0.191   1.129   2.265 -0.4429  0.0870 -0.0069
  245CL      CL  245   3.180   1.827   0.256 -0.0697  0.1787 -0.1150
  246CL      CL  246   0.097   3.865   3.561 -0.3471  0.1468 -0.2965
  247CL      CL  247   0.836   0.118   2.355  0.0885  0.5903  0.3597
  248CL      CL  248   4.712   4.549   0.766  0.0571  0.2632  0.2884
  249CL      CL  249   0.645   5.137   0.590  0.5376  0.1130 -0.4498
  250CL      CL  250   5.931   3.493   5.035  0.1211 -0.0489 -0.3013
  251CL      CL  251   3.362   5.314   3.183 -0.3309 -0.1822  0.3848
  252CL      CL  252   0.880   3.904   0.543  0.3117  0.0612  0.3550
  253CL      CL  253   1.301   1.067   4.767 -0.0149 -0.4955  0.2431
  254CL      CL  254   5.167   2.668   0.482 -0.0897 -0.0767  0.2558
  255CL      CL  255   1.000   1.287   0.864 -0.2695  0.0561  0.2042
  256CL      CL  256   0.123   3.071   3.430  0.3397  0.1031  0.2991
  257CL      CL  257   5.341   1.223   4.025  0.5451  0.0062  0.0953
  258CL      CL  258   4.789   5.352   0.942 -0.4387 -0.3962  0.2483
  259CL      CL  259   0.789   5.555   2.990 -0.2648 -0.0140 -0.1019
  260CL      CL  260   4.800   3.772   3.841  0.0510  0.2166 -0.1071
  261CL      CL  261   5.982   5.509   2.699 -0.0115  0.0620  0.1021
  262CL      CL  262   3.377   2.272   4.034 -0.1819 -0.3931 -0.0695
  263CL      CL  263   5.706   4.340   2.729  0.4683 -0.0779  0.4467
  264CL      CL  264   3.393   1.248   1.127 -0.1950 -0.1480  0.1872
  265CL      CL  265   4.736   0.087   0.762 -0.1987 -0.1322  0.0964
  266CL      CL  266   2.016   3.161   2.355 -0.0139 -0.0399  0.2659
  267CL      CL  267   5.230   1.834   0.671  0.3271  0.5100 -0.1029
  268CL      CL  268   5.873   4.281   5.654  0.2151 -0.2302 -0.0373
  269CL      CL  269   2.693   2.458   0.889 -0.1060 -0.0994  0.0228
  270CL      CL  270   1.801   0.419   1.497  0.0453 -0.2498 -0.4388
  271SOL     OW  271   1.716   5.198   0.696  0.6489  0.5055 -0.0463
  271SOL    HW1  272   1.738   5.219   0.606 -1.6440 -1.0621 -1.0309
  271SOL    HW2  273   1.740   5.106   0.706  0.5208  0.5599  0.8280
  271SOL     MW  274   1.722   5.189   0.686  0.3390  0.3119 -0.0604
  272SOL     OW  275   3.360   1.233   3.191 -0.0937 -0.1475  0.2680
  272SOL    HW1  276   3.425   1.296   3.221 -2.3044  2.2060  0.3131
  272SOL    HW2  277   3.404   1.183   3.122  1.6969  1.4307  0.2494
  272SOL     MW  278   3.374   1.234   3.186 -0.1476  0.3558  0.2716
  273SOL     OW  279   5.329   3.885   2.394  0.7355  0.3740  0.9465
  273SOL    HW1  280   5.248   3.926   2.425 -1.3678 -1.0630 -2.4375
  273SOL    HW2  281   5.347   3.816   2.458 -0.7270  0.6748  1.7091
  273SOL     MW  282   5.321   3.882   2.406  0.2785  0.2284  0.6108
  274SOL     OW  283   3.978   5.663   4.401  0.3195  0.1661  0.7972
  274SOL    HW1  284   3.959   5.711   4.320  0.0697  0.8874  1.2803
  274SOL    HW2  285   3.902   5.605   4.413 -0.1148  0.7740  1.0360
  274SOL     MW  286   3.966   5.662   4.392  0.2320  0.3357  0.8898
  275SOL     OW  287   5.185   3.956   5.257  0.3528  0.4224 -0.0714
  275SOL    HW1  288   5.126   3.990   5.325 -0.7565  0.1168 -0.8769
  275SOL    HW2  289   5.168   4.011   5.180  1.3487  0.5299 -0.2249
  275SOL     MW  290   5.175   3.968   5.256  0.3386  0.3972 -0.1945
  276SOL     OW  291   2.756   5.507   1.360  0.4017 -0.6438 -0.1170
  276SOL    HW1  292   2.850   5.493   1.373  0.9499  1.4037 -1.5884
  276SOL    HW2  293   2.748   5.536   1.269 -1.4533  0.9007  0.4858
  276SOL     MW  294   2.767   5.509   1.350  0.2341 -0.1836 -0.2282
  277SOL     OW  295   4.473   0.545   5.331  0.1048  0.4257 -0.1090
  277SOL    HW1  296   4.441   0.503   5.251 -0.3415  0.4554  0.0548
  277SOL    HW2  297   4.518   0.475   5.378  0.9694  0.5695 -0.7106
  277SOL     MW  298   4.475   0.530   5.327  0.1583  0.4479 -0.1655
  278SOL     OW  299   1.812   4.339   5.692 -0.2477  0.3807  0.0226
  278SOL    HW1  300   1.719   4.361   5.696 -0.1635  0.4886  2.0824
  278SOL    HW2  301   1.854   4.419   5.660 -0.9205  0.1150 -1.5517
  278SOL     MW  302   1.806   4.352   5.688 -0.3231  0.3610  0.0849
  279SOL     OW  303   3.772   4.707   5.332  0.3927  0.0285 -0.3675
  279SOL    HW1  304   3.720   4.627   5.336  0.9284 -0.2557  1.0555
  279SOL    HW2  305   3.712   4.777   5.359  0.2051 -0.0119 -0.6681
  279SOL     MW  306   3.758   4.706   5.336  0.4373 -0.0134 -0.2236
  280SOL     OW  307   5.204   1.068   4.505 -0.1997 -0.6264 -0.2108
  280SOL    HW1  308   5.183   1.162   4.510  1.3640 -0.3281  1.3239
  280SOL    HW2  309   5.240   1.057   4.417 -1.4588 -0.0204 -0.8177
  280SOL     MW  310   5.206   1.079   4.495 -0.1607 -0.5107 -0.0920
  281SOL     OW  311   5.361   3.775   0.321  0.4856 -0.6734 -0.4473
  281SOL    HW1  312   5.374   3.834   0.395  1.2033 -1.9607  0.4718
  281SOL    HW2  313   5.416   3.810   0.252 -0.7108  0.9353 -0.6263
  281SOL     MW  314   5.369   3.787   0.322  0.4244 -0.6323 -0.3526
  282SOL     OW  315   2.132   3.155   5.215  0.1352 -0.1929 -0.3515
  282SOL    HW1  316   2.227   3.149   5.223  0.3129  0.8340 -1.5436
  282SOL    HW2  317   2.113   3.248   5.225 -0.9617 -0.6238  1.9162
  282SOL     MW  318   2.141   3.166   5.217  0.0174 -0.1168 -0.2136
  283SOL     OW  319   1.861   2.376   1.055  0.4448 -0.3878 -0.0527
  283SOL    HW1  320   1.785   2.420   1.095  0.1760 -2.1615  1.4697
  283SOL    HW2  321   1.933   2.438   1.066 -0.1343  0.0900  1.1950
  283SOL     MW  322   1.860   2.389   1.061  0.3364 -0.5541  0.3020
  284SOL     OW  323   2.931   2.289   1.727  0.5475 -0.3517  0.1314
  284SOL    HW1  324   2.880   2.252   1.798 -0.7524 -1.6513 -1.4310
  284SOL    HW2  325   2.873   2.286   1.651  2.4123 -0.4592 -1.3494
  284SOL     MW  326   2.917   2.284   1.726  0.6199 -0.5317 -0.2583
  285SOL     OW  327   1.606   0.129   2.998  0.2486  0.4624 -0.4388
  285SOL    HW1  328   1.691   0.113   3.041  0.0465 -0.6312 -0.4333
  285SOL    HW2  329   1.629   0.178   2.919  1.0167 -0.8833 -1.0640
  285SOL     MW  330   1.620   0.133   2.994  0.3210  0.1501 -0.5181
  286SOL     OW  331   3.099   1.548   4.313  0.0223 -0.0693 -0.5931
  286SOL    HW1  332   3.097   1.570   4.219  1.2242 -0.1536 -0.6420
  286SOL    HW2  333   3.104   1.453   4.315  2.1112  0.0258 -0.4822
  286SOL     MW  334   3.099   1.539   4.301  0.4435 -0.0681 -0.5851
  287SOL     OW  335   3.335   3.180   1.485 -0.3193 -0.1517 -0.2190
  287SOL    HW1  336   3.318   3.155   1.576 -0.1941 -0.8530 -0.3882
  287SOL    HW2  337   3.262   3.237   1.462  0.0086  0.5883  0.5434
  287SOL     MW  338   3.324   3.184   1.493 -0.2613 -0.1464 -0.1429
  288SOL     OW  339   1.341   2.343   1.989  0.1783  0.4442 -0.4163
  288SOL    HW1  340   1.369   2.362   1.900 -0.0551  0.1714 -0.5533
  288SOL    HW2  341   1.409   2.286   2.024  0.6786  1.2051 -0.1392
  288SOL     MW  342   1.353   2.338   1.982  0.2126  0.5066 -0.3983
  289SOL     OW  343   0.112   3.765   0.247 -0.4356 -0.2154  0.3966
  289SOL    HW1  344   0.068   3.688   0.210  0.3213  0.9650 -3.0853
  289SOL    HW2  345   0.040   3.825   0.268 -0.7513 -0.0808 -1.0588
  289SOL     MW  346   0.097   3.763   0.245 -0.3791 -0.0472 -0.2354
  290SOL     OW  347   4.161   3.600   5.573  0.0624 -0.2406  0.0774
  290SOL    HW1  348   4.141   3.691   5.550  2.8211  0.4961  0.4470
  290SOL    HW2  349   4.169   3.555   5.489 -0.4684  0.0379 -0.1250
  290SOL     MW  350   4.160   3.606   5.560  0.3481 -0.1106  0.0987
  291SOL     OW  351   3.909   3.720   1.679  0.6354  0.1872 -0.1834
  291SOL    HW1  352   3.981   3.663   1.703 -0.5593 -1.4082 -0.3181
  291SOL    HW2  353   3.908   3.788   1.746  0.5678 -1.3109  1.3561
  291SOL     MW  354   3.918   3.721   1.691  0.4737 -0.2089 -0.0036
  292SOL     OW  355   1.087   2.231   4.740 -0.5391 -0.3077 -0.0697
  292SOL    HW1  356   1.044   2.148   4.721  1.1851 -1.6198  1.5749
  292SOL    HW2  357   1.075   2.243   4.834 -0.5352  1.1954 -0.2478
  292SOL     MW  358   1.080   2.222   4.749 -0.3179 -0.2835  0.1178
  293SOL     OW  359   1.209   1.929   0.421  0.1363 -0.3185  0.1829
  293SOL    HW1  360   1.274   1.994   0.446  0.1450 -0.2848  0.0724
  293SOL    HW2  361   1.244   1.846   0.454 -0.5935 -0.0625  1.6492
  293SOL     MW  362   1.221   1.927   0.428  0.0440 -0.2815  0.3564
  294SOL     OW  363   5.309   5.722   0.125  0.3330  0.0824  0.4230
  294SOL    HW1  364   5.397   5.704   0.160  0.5240 -1.2636 -0.7096
  294SOL    HW2  365   5.279   5.638   0.090 -1.0002  0.7565 -0.0911
  294SOL     MW  366   5.317   5.709   0.125  0.1864 -0.0033  0.2122
  295SOL     OW  367   4.922   5.611   2.772  0.2027  0.4334 -0.3920
  295SOL    HW1  368   4.888   5.624   2.683 -0.8911 -0.3529 -0.1121
  295SOL    HW2  369   4.857   5.653   2.829 -1.0960 -2.2920  0.2384
  295SOL     MW  370   4.909   5.618   2.768 -0.1040 -0.0162 -0.2754
  296SOL     OW  371   2.420   0.899   5.835  0.2766 -0.1910  0.0069
  296SOL    HW1  372   2.354   0.831   5.848 -0.4381  0.1442 -1.7586
  296SOL    HW2  373   2.503   0.858   5.860 -0.5162 -0.7653  1.7893
  296SOL     MW  374   2.422   0.885   5.840  0.0834 -0.2217  0.0086
  297SOL     OW  375   3.435   3.215   4.341  0.0377 -0.3506  0.0707
  297SOL    HW1  376   3.466   3.128   4.366 -2.1685 -1.1530  0.1569
  297SOL    HW2  377   3.406   3.255   4.423 -0.0775 -0.0082 -0.1337
  297SOL     MW  378   3.435   3.209   4.355 -0.2594 -0.4094  0.0553
  298SOL     OW  379   5.769   5.017   2.968 -0.4503 -0.2673 -0.2278
  298SOL    HW1  380   5.765   4.980   3.056 -0.9936 -0.7373 -0.4407
  298SOL    HW2  381   5.790   5.109   2.981  0.1331 -0.4766  0.3579
  298SOL     MW  382   5.771   5.024   2.981 -0.4454 -0.3543 -0.1798
  299SOL     OW  383   2.842   5.418   5.616 -0.0068 -0.3909 -0.2237
  299SOL    HW1  384   2.780   5.346   5.605  0.9447 -1.3645  0.6670
  299SOL    HW2  385   2.815   5.461   5.696  0.3634 -0.7232  0.0830
  299SOL     MW  386   2.830   5.414   5.625  0.1626 -0.5579 -0.0706
  300SOL     OW  387   0.541   3.061   5.768 -1.0760  0.1621  0.0165
  300SOL    HW1  388   0.504   2.973   5.757  0.1085 -0.2306 -0.8658
  300SOL    HW2  389   0.632   3.053   5.739 -1.2041  1.8932 -0.9116
  300SOL     MW  390   0.548   3.048   5.763 -0.9408  0.3335 -0.2151
  301SOL     OW  391   5.420   1.013   5.505  0.5026 -0.3211  0.2028
  301SOL    HW1  392   5.425   0.921   5.479 -0.7158 -0.0914 -0.9070
  301SOL    HW2  393   5.340   1.019   5.557 -0.2319  0.3926 -0.9848
  301SOL     MW  394   5.410   1.002   5.508  0.2527 -0.2004 -0.0916
  302SOL     OW  395   0.685   4.199   0.475  0.4123  0.3333  0.3193
  302SOL    HW1  396   0.590   4.189   0.476  0.3528  0.8312 -0.0715
  302SOL    HW2  397   0.718   4.115   0.443 -0.0576  1.1455 -2.4605
  302SOL     MW  398   0.677   4.187   0.471  0.3446  0.5007 -0.0865
  303SOL     OW  399   2.407   5.297   1.466  0.2917  0.1162  0.4570
  303SOL    HW1  400   2.468   5.304   1.540  1.6466  1.8648 -0.7815
  303SOL    HW2  401   2.463   5.292   1.389 -1.1258  1.0083 -0.6527
  303SOL     MW  402   2.422   5.297   1.466  0.2837  0.4549  0.1563
  304SOL     OW  403   1.483   2.427   3.897  0.4253 -0.3469 -0.2148
  304SOL    HW1  404   1.560   2.481   3.883 -1.3694  2.2883 -0.2476
  304SOL    HW2  405   1.472   2.424   3.992  0.7613 -1.0367 -0.1919
  304SOL     MW  406   1.491   2.433   3.908  0.2387 -0.0978 -0.2162
  305SOL     OW  407   0.056   4.608   1.622  0.8315  0.2887  0.2733
  305SOL    HW1  408   0.060   4.703   1.620  0.3073  0.3193  0.5610
  305SOL    HW2  409   0.122   4.583   1.687 -0.1649  0.5479  1.4172
  305SOL     MW  410   0.065   4.617   1.630  0.6368  0.3262  0.4565
  306SOL     OW  411   0.941   4.902   2.419 -0.3205  0.0907 -0.1070
  306SOL    HW1  412   0.886   4.971   2.382  1.9306  1.7612 -0.4923
  306SOL    HW2  413   1.030   4.935   2.407  0.6891 -1.8937  1.7364
  306SOL     MW  414   0.945   4.915   2.413  0.0969  0.0501  0.0799
  307SOL     OW  415   3.931   0.215   5.069  0.0955  0.1626 -0.2337
  307SOL    HW1  416   3.845   0.255   5.054 -1.1549 -2.1876  0.2744
  307SOL    HW2  417   3.984   0.284   5.107 -1.9833  1.2890  0.7056
  307SOL     MW  418   3.927   0.229   5.072 -0.3304  0.0060 -0.0486
  308SOL     OW  419   2.366   0.299   1.323  0.2521 -0.0170  0.1240
  308SOL    HW1  420   2.449   0.346   1.317  0.7336 -1.0638 -1.7902
  308SOL    HW2  421   2.366   0.262   1.411  1.2134  1.0517  0.5938
  308SOL     MW  422   2.377   0.300   1.334  0.4368 -0.0141 -0.0610
  309SOL     OW  423   1.966   3.577   3.909 -0.7185 -0.4864  0.2132
  309SOL    HW1  424   1.961   3.520   3.832  1.2735  0.2900 -0.5414
  309SOL    HW2  425   2.039   3.540   3.960 -0.8782  0.0528  0.8286
  309SOL     MW  426   1.975   3.565   3.906 -0.4840 -0.3178  0.1950
  310SOL     OW  427   2.908   1.173   3.063 -0.1886  0.0966  0.1743
  310SOL    HW1  428   2.831   1.182   3.007 -0.8856 -0.0089  1.1016
  310SOL    HW2  429   2.904   1.248   3.122  1.1634  0.8309 -0.6501
  310SOL     MW  430   2.898   1.184   3.063 -0.1047  0.1771  0.1874
  311SOL     OW  431   1.692   1.805   4.030  0.0451 -0.0376 -0.0635
  311SOL    HW1  432   1.723   1.743   3.964 -2.4493  1.3746 -2.6320
  311SOL    HW2  433   1.600   1.783   4.042  0.1006  0.7195  1.8739
  311SOL     MW  434   1.684   1.794   4.023 -0.2670  0.2401 -0.1440
  312SOL     OW  435   3.281   5.325   5.359 -0.4407 -0.5967 -0.3016
  312SOL    HW1  436   3.345   5.293   5.423 -1.0190 -2.1528 -0.4591
  312SOL    HW2  437   3.317   5.408   5.328  0.5192 -0.4799  1.0509
  312SOL     MW  438   3.294   5.331   5.364 -0.3920 -0.7806 -0.1493
  313SOL     OW  439   2.796   0.557   4.658  0.0603  0.6261 -0.8718
  313SOL    HW1  440   2.736   0.629   4.638 -0.2303  0.2442 -1.3970
  313SOL    HW2  441   2.772   0.529   4.746 -1.0606 -0.0386 -1.3791
  313SOL     MW  442   2.786   0.563   4.667 -0.1204  0.4922 -1.0037
  314SOL     OW  443   4.468   2.478   2.913  0.0003 -0.4452  0.1727
  314SOL    HW1  444   4.550   2.430   2.922  0.1990 -0.0496  0.4450
  314SOL    HW2  445   4.428   2.441   2.834  0.8297 -0.0555 -0.4391
  314SOL     MW  446   4.473   2.467   2.904  0.1321 -0.3445  0.1292
  315SOL     OW  447   4.490   5.920   4.544 -0.7484  0.4506  0.3395
  315SOL    HW1  448   4.427   5.864   4.590 -0.0004 -0.9404 -0.2718
  315SOL    HW2  449   4.574   5.898   4.583 -0.2927  0.2914 -0.7111
  315SOL     MW  450   4.493   5.910   4.555 -0.5941  0.2518  0.1268
  316SOL     OW  451   2.327   4.137   0.699 -0.6019  0.3464 -0.1987
  316SOL    HW1  452   2.326   4.066   0.763  2.6696  0.0484 -0.3960
  316SOL    HW2  453   2.314   4.094   0.614  0.1981  0.1066 -0.2044
  316SOL     MW  454   2.326   4.123   0.696 -0.0803  0.2780 -0.2247
  317SOL     OW  455   4.164   1.788   1.418 -0.3687  0.1639  0.0980
  317SOL    HW1  456   4.204   1.709   1.382 -0.6071 -0.2184  0.6639
  317SOL    HW2  457   4.072   1.782   1.393 -0.5671 -0.1806  0.8994
  317SOL     MW  458   4.157   1.777   1.411 -0.4244  0.0708  0.2730
  318SOL     OW  459   5.249   4.183   1.877 -0.3680 -0.5093 -0.4185
  318SOL    HW1  460   5.154   4.172   1.880 -0.5723  1.3628  1.9991
  318SOL    HW2  461   5.281   4.138   1.956  0.5111  0.7628 -0.0351
  318SOL     MW  462   5.241   4.176   1.887 -0.2813 -0.1073 -0.0600
  319SOL     OW  463   2.485   0.383   4.260 -0.3843 -0.1472 -0.5361
  319SOL    HW1  464   2.447   0.457   4.308 -1.1921  0.2898 -1.8448
  319SOL    HW2  465   2.511   0.419   4.176  0.3814 -1.0780 -0.7053
  319SOL     MW  466   2.484   0.397   4.256 -0.3898 -0.2104 -0.7253
  320SOL     OW  467   3.246   0.052   0.386 -0.0280  0.2715  0.2637
  320SOL    HW1  468   3.304  -0.024   0.377 -1.7239 -0.9692 -0.6169
  320SOL    HW2  469   3.284   0.103   0.457  1.1814 -1.3699  0.8353
  320SOL     MW  470   3.259   0.049   0.394 -0.0906 -0.0974  0.2241
  321SOL     OW  471   5.212   1.415   0.051  0.2501 -0.2748 -0.7449
  321SOL    HW1  472   5.144   1.460   0.100  1.2129  2.5805 -1.8902
  321SOL    HW2  473   5.282   1.400   0.115 -0.3558 -0.7546 -0.1934
  321SOL     MW  474   5.212   1.419   0.065  0.2956  0.0292 -0.8209
  322SOL     OW  475   4.012   2.549   0.643  0.3382  0.0263  0.0099
  322SOL    HW1  476   4.004   2.528   0.550 -2.9884  0.5178  0.1161
  322SOL    HW2  477   4.066   2.628   0.646  2.3593 -1.2516 -1.2838
  322SOL     MW  478   4.018   2.557   0.632  0.1717 -0.0741 -0.1422
  323SOL     OW  479   4.807   4.110   4.303  0.2306  0.7820 -0.0962
  323SOL    HW1  480   4.888   4.061   4.292 -1.0229 -1.1456 -1.0383
  323SOL    HW2  481   4.782   4.135   4.214 -0.6659  0.5563  0.0849
  323SOL     MW  482   4.814   4.107   4.290 -0.0443  0.5069 -0.1941
  324SOL     OW  483   3.268   3.430   5.456  0.0089 -0.0085  0.0973
  324SOL    HW1  484   3.231   3.383   5.381 -0.1677  0.3094 -0.0124
  324SOL    HW2  485   3.344   3.377   5.482 -0.2639 -0.4270  0.0535
  324SOL     MW  486   3.273   3.417   5.450 -0.0486 -0.0212  0.0782
  325SOL     OW  487   0.375   2.838   5.730  0.0454  0.2878  0.0440
  325SOL    HW1  488   0.351   2.759   5.778 -1.9715  1.2345  0.6109
  325SOL    HW2  489   0.295   2.889   5.724  1.4744  2.6557  0.3310
  325SOL     MW  490   0.362   2.835   5.735 -0.0299  0.7119  0.1535
  326SOL     OW  491   3.429   1.862   4.018  0.4261 -0.4989  0.1818
  326SOL    HW1  492   3.479   1.787   3.988  1.4876  0.4612 -0.4721
  326SOL    HW2  493   3.440   1.928   3.950 -2.2380 -0.4794 -0.2717
  326SOL     MW  494   3.437   1.861   4.006  0.2210 -0.3736  0.0410
  327SOL     OW  495   1.583   0.081   2.103  0.3149  0.4210  0.7542
  327SOL    HW1  496   1.606   0.027   2.179 -1.2825  0.2234  1.1201
  327SOL    HW2  497   1.614   0.031   2.027  1.6848  0.4954  1.2662
  327SOL     MW  498   1.590   0.068   2.103  0.2857  0.4052  0.8664
  328SOL     OW  499   2.079   1.299   2.679 -0.0030  0.0957  0.0461
  328SOL    HW1  500   2.037   1.265   2.600  0.6353 -0.2752 -0.1298
  328SOL    HW2  501   2.057   1.236   2.747 -0.8360  0.5889  0.2477
  328SOL     MW  502   2.071   1.287   2.678 -0.0279  0.1113  0.0496
  329SOL     OW  503   0.394   3.455   4.408 -0.5936 -0.6964  0.2214
  329SOL    HW1  504   0.342   3.527   4.372 -0.5235 -0.4384  0.6340
  329SOL    HW2  505   0.329   3.392   4.440 -0.6545 -0.7507 -0.0078
  329SOL     MW  506   0.379   3.456   4.407 -0.5924 -0.6707  0.2441
  330SOL     OW  507   4.417   0.568   3.964  0.4500 -0.1224  0.1116
  330SOL    HW1  508   4.473   0.510   3.913  0.9171  2.2180 -2.1257
  330SOL    HW2  509   4.461   0.653   3.961 -0.9665  0.7149  2.0834
  330SOL     MW  510   4.430   0.572   3.958  0.3290  0.2844  0.0777
  331SOL     OW  511   5.919   1.033   3.060 -0.3984  0.1949 -0.8202
  331SOL    HW1  512   6.010   1.004   3.052 -1.0959 -2.2792 -0.3335
  331SOL    HW2  513   5.890   1.047   2.970  0.0414 -0.4246 -1.0633
  331SOL     MW  514   5.927   1.031   3.048 -0.4311 -0.2011 -0.7889
  332SOL     OW  515   4.127   5.388   5.315  0.6354  0.5651  0.6258
  332SOL    HW1  516   4.209   5.406   5.269 -0.9014  0.1756 -2.4445
  332SOL    HW2  517   4.107   5.469   5.361  2.4702  0.8411  0.9717
  332SOL     MW  518   4.135   5.400   5.315  0.6733  0.5507  0.2770
  333SOL     OW  519   3.669   4.660   3.349 -0.0351  0.2029  0.1922
  333SOL    HW1  520   3.591   4.603   3.351 -0.0270  0.2011  0.6588
  333SOL    HW2  521   3.725   4.622   3.282 -0.9284  0.8628 -0.9559
  333SOL     MW  522   3.666   4.648   3.341 -0.1483  0.2871  0.1047
  334SOL     OW  523   4.695   5.713   5.206  0.1169 -1.0383  0.0149
  334SOL    HW1  524   4.745   5.634   5.185  0.5830 -0.9504  0.7600
  334SOL    HW2  525   4.704   5.769   5.129  2.2041 -0.5087  0.6189
  334SOL     MW  526   4.702   5.710   5.194  0.4435 -0.9594  0.1874
  335SOL     OW  527   0.959   1.544   3.120 -0.0995 -0.1563 -0.0462
  335SOL    HW1  528   0.956   1.605   3.194 -1.6484 -0.5642  0.2609
  335SOL    HW2  529   0.890   1.575   3.061 -0.8040 -1.4891  0.0418
  335SOL     MW  530   0.950   1.556   3.122 -0.3880 -0.3791  0.0045
  336SOL     OW  531   5.667   3.731   2.320  0.6307 -0.5790  0.3064
  336SOL    HW1  532   5.670   3.767   2.409  1.7344  1.4105 -0.5111
  336SOL    HW2  533   5.582   3.758   2.286  0.6277 -0.4663  0.4039
  336SOL     MW  534   5.657   3.739   2.327  0.7715 -0.3097  0.2141
  337SOL     OW  535   0.791   5.390   3.263 -0.2940  0.9249 -0.3160
  337SOL    HW1  536   0.796   5.453   3.192  2.6191  0.4421 -0.6049
  337SOL    HW2  537   0.876   5.395   3.306 -0.7572 -1.2836  0.9509
  337SOL     MW  538   0.802   5.398   3.259  0.0196  0.5803 -0.1910
  338SOL     OW  539   1.145   2.437   5.233  0.3321 -0.1614  0.0522
  338SOL    HW1  540   1.153   2.500   5.306  0.0789  1.5164 -1.3365
  338SOL    HW2  541   1.066   2.388   5.253 -0.3839  1.0812  0.3415
  338SOL     MW  542   1.136   2.439   5.245  0.2080  0.2124 -0.0882
  339SOL     OW  543   2.409   1.305   2.983  0.2645  0.2390  0.4611
  339SOL    HW1  544   2.395   1.345   2.898 -1.3318 -0.9637  0.1349
  339SOL    HW2  545   2.445   1.376   3.037 -0.7508  1.5955 -0.5992
  339SOL     MW  546   2.412   1.319   2.979 -0.0699  0.2588  0.2835
  340SOL     OW  547   0.325   0.295   0.108  0.7856 -0.0142 -0.6688
  340SOL    HW1  548   0.385   0.359   0.070  0.3002  1.8622  1.6221
  340SOL    HW2  549   0.241   0.314   0.066  0.5086  1.2924  0.4325
  340SOL     MW  550   0.322   0.306   0.098  0.6880  0.3933 -0.2345
  341SOL     OW  551   2.998   0.117   2.678 -0.1822  0.1056  0.5948
  341SOL    HW1  552   2.957   0.068   2.749  0.8568  0.1269  1.2239
  341SOL    HW2  553   3.049   0.051   2.631  1.3615  0.5845  1.5498
  341SOL     MW  554   2.999   0.102   2.681  0.1483  0.1696  0.7975
  342SOL     OW  555   0.636   1.541   2.159  0.7111  0.0881  0.1414
  342SOL    HW1  556   0.657   1.601   2.087 -2.6485 -1.4604 -2.2556
  342SOL    HW2  557   0.647   1.454   2.121 -0.4645 -0.7696  1.7246
  342SOL     MW  558   0.640   1.538   2.145  0.1305 -0.2199  0.0372
  343SOL     OW  559   3.154   5.829   2.083  0.3732  0.2823  0.0346
  343SOL    HW1  560   3.183   5.803   2.171  2.5054  0.3033 -0.6398
  343SOL    HW2  561   3.235   5.836   2.032 -0.7944  0.8745 -1.7784
  343SOL     MW  562   3.168   5.827   2.088  0.4966  0.3605 -0.2837
  344SOL     OW  563   4.287   0.339   2.236 -1.1910 -0.2933  0.2247
  344SOL    HW1  564   4.288   0.412   2.174  0.3118  0.1158  0.7165
  344SOL    HW2  565   4.303   0.262   2.183  0.7337  0.1257  0.1820
  344SOL     MW  566   4.289   0.339   2.221 -0.7520 -0.1872  0.2823
  345SOL     OW  567   5.753   1.176   1.243 -0.2785 -0.1145 -0.4516
  345SOL    HW1  568   5.729   1.184   1.151 -0.6588  4.2075 -0.1189
  345SOL    HW2  569   5.745   1.266   1.277 -1.4058 -1.7963  4.0910
  345SOL     MW  570   5.749   1.189   1.236 -0.4711  0.2235  0.1724
  346SOL     OW  571   3.014   0.492   1.555 -0.1166 -0.2691 -0.9682
  346SOL    HW1  572   3.043   0.550   1.484  1.9606 -1.2865 -0.9608
  346SOL    HW2  573   3.046   0.534   1.635 -2.9250  1.1677 -0.5044
  346SOL     MW  574   3.022   0.505   1.556 -0.2103 -0.2155 -0.9078
  347SOL     OW  575   0.136   4.201   0.127 -0.0698  0.5036  0.4269
  347SOL    HW1  576   0.163   4.181   0.216  0.0102  0.9663  0.5055
  347SOL    HW2  577   0.043   4.222   0.135 -0.1314  0.2609  0.3576
  347SOL     MW  578   0.127   4.201   0.139 -0.0675  0.5317  0.4281
  348SOL     OW  579   0.357   4.562   2.188  0.1420 -0.1661 -0.2853
  348SOL    HW1  580   0.337   4.586   2.278  0.6518  2.3354 -0.7953
  348SOL    HW2  581   0.272   4.560   2.144  0.0560  0.2805 -0.1362
  348SOL     MW  582   0.344   4.565   2.194  0.1963  0.2108 -0.3316
  349SOL     OW  583   0.956   2.208   5.737  0.2964  0.0650 -0.6834
  349SOL    HW1  584   1.023   2.191   5.804 -1.2485  0.6893  1.0655
  349SOL    HW2  585   0.917   2.291   5.763 -0.7730 -0.0088 -2.0057
  349SOL     MW  586   0.960   2.216   5.749 -0.0383  0.1352 -0.6289
  350SOL     OW  587   5.746   5.593   1.553 -0.4770 -0.1557  0.3544
  350SOL    HW1  588   5.716   5.502   1.557 -3.5133  0.7915  0.3453
  350SOL    HW2  589   5.723   5.622   1.464 -0.4328  0.9110  0.6814
  350SOL     MW  590   5.739   5.585   1.542 -0.8602  0.1020  0.3951
  351SOL     OW  591   5.875   3.022   2.515  0.7763  0.0886 -0.1685
  351SOL    HW1  592   5.800   3.043   2.459  2.4445  1.8162 -1.8413
  351SOL    HW2  593   5.927   2.961   2.464  0.2196 -1.6161  1.2564
  351SOL     MW  594   5.872   3.017   2.502  0.9189  0.0916 -0.2003
  352SOL     OW  595   1.093   2.977   2.461  0.1578  0.0623  0.1210
  352SOL    HW1  596   1.131   2.969   2.549 -0.7623  0.6726  0.5900
  352SOL    HW2  597   1.007   2.937   2.469  0.2522 -0.2944 -0.6368
  352SOL     MW  598   1.087   2.971   2.473  0.0521  0.0949  0.0839
  353SOL     OW  599   0.437   4.003   4.284 -0.1578 -0.0249  0.3890
  353SOL    HW1  600   0.504   4.031   4.346  0.1507 -0.0992  0.0916
  353SOL    HW2  601   0.366   4.066   4.293 -0.4059 -0.4334  1.3155
  353SOL     MW  602   0.436   4.015   4.293 -0.1501 -0.0873  0.4697
  354SOL     OW  603   2.574   2.868   5.444  0.7453 -0.2587  0.8324
  354SOL    HW1  604   2.603   2.787   5.487  0.0448 -1.7925 -1.4314
  354SOL    HW2  605   2.480   2.870   5.459  1.0685  1.3609  2.7893
  354SOL     MW  606   2.566   2.858   5.451  0.6967 -0.2477  0.7935
  355SOL     OW  607   2.471   4.014   1.926 -0.2906 -0.2604  0.2710
  355SOL    HW1  608   2.553   4.002   1.878  1.0192 -1.2604  2.6425
  355SOL    HW2  609   2.491   3.986   2.015 -2.1760  3.0518  1.8393
  355SOL     MW  610   2.484   4.009   1.931 -0.3643  0.0353  0.7755
  356SOL     OW  611   4.710   4.370   1.747 -0.0005 -0.0243 -0.3606
  356SOL    HW1  612   4.616   4.356   1.763 -0.5388 -0.2430 -3.3509
  356SOL    HW2  613   4.732   4.304   1.681  1.4705  2.1451 -2.0943
  356SOL     MW  614   4.701   4.360   1.740  0.1192  0.2251 -0.9654
  357SOL     OW  615   1.804   4.098   0.513  0.5160 -0.1688 -0.3439
  357SOL    HW1  616   1.884   4.132   0.472 -0.4924  1.3064 -1.1123
  357SOL    HW2  617   1.834   4.057   0.594  2.1753 -0.5198 -1.1201
  357SOL     MW  618   1.818   4.097   0.518  0.5993 -0.0243 -0.5417
  358SOL     OW  619   4.390   0.310   3.718  0.2401  0.8952 -0.2707
  358SOL    HW1  620   4.477   0.316   3.756  0.1847  2.0484 -0.3052
  358SOL    HW2  621   4.394   0.235   3.659  0.2456 -1.1144  2.2165
  358SOL     MW  622   4.401   0.301   3.715  0.2332  0.7855  0.0434
  359SOL     OW  623   3.473   1.990   0.293 -0.0738 -0.5091  0.2782
  359SOL    HW1  624   3.493   1.992   0.386 -0.6272 -2.2753  0.4502
  359SOL    HW2  625   3.387   1.948   0.287  1.0393 -2.7183 -1.1627
  359SOL     MW  626   3.465   1.985   0.304 -0.0021 -1.0180  0.1158
  360SOL     OW  627   5.461   4.752   1.116 -0.2394 -0.0247 -0.0355
  360SOL    HW1  628   5.518   4.809   1.064 -0.4572 -0.7498 -1.0747
  360SOL    HW2  629   5.521   4.700   1.169  0.1125 -1.1190 -1.4703
  360SOL     MW  630   5.476   4.753   1.116 -0.2222 -0.2575 -0.3521
  361SOL     OW  631   0.643   5.781   1.198  0.4040  0.5244 -0.8278
  361SOL    HW1  632   0.685   5.737   1.272 -0.8835  1.2705  0.3803
  361SOL    HW2  633   0.651   5.874   1.218  0.4816  0.7417 -1.8765
  361SOL     MW  634   0.649   5.787   1.210  0.2491  0.6480 -0.8074
  362SOL     OW  635   1.600   0.263   4.139  0.3299 -0.5597  0.3219
  362SOL    HW1  636   1.521   0.293   4.184  0.2345 -1.4663  0.7830
  362SOL    HW2  637   1.657   0.339   4.138  0.3974 -0.5592  2.1439
  362SOL     MW  638   1.597   0.276   4.145  0.3263 -0.6757  0.6142
  363SOL     OW  639   1.954   1.937   5.688 -1.0986 -0.0720  0.1271
  363SOL    HW1  640   2.039   1.959   5.651 -0.5779 -0.5489  1.0210
  363SOL    HW2  641   1.901   1.909   5.613 -0.9095  1.5489 -0.6196
  363SOL     MW  642   1.958   1.936   5.674 -1.0076  0.0744  0.1454
  364SOL     OW  643   5.936   0.532   2.242  0.1780  0.2142 -0.8826
  364SOL    HW1  644   5.844   0.538   2.267  0.4123  1.9008 -0.3723
  364SOL    HW2  645   5.974   0.472   2.306 -0.2001  0.8792 -0.0239
  364SOL     MW  646   5.929   0.525   2.253  0.1597  0.5152 -0.7071
  365SOL     OW  647   2.798   1.815   4.508  0.6970 -0.0516  0.0530
  365SOL    HW1  648   2.798   1.909   4.492  0.6904 -0.2443 -1.1624
  365SOL    HW2  649   2.854   1.803   4.585 -0.7817  1.1154  1.3529
  365SOL     MW  650   2.805   1.825   4.516  0.5066  0.0732  0.0639
  366SOL     OW  651   0.026   4.639   2.494 -0.2222  0.3387 -0.2308
  366SOL    HW1  652  -0.045   4.578   2.476  1.5848 -1.7620 -0.3388
  366SOL    HW2  653   0.024   4.651   2.589  0.0320 -0.6523 -0.0987
  366SOL     MW  654   0.017   4.633   2.504  0.0415 -0.0567 -0.2279
  367SOL     OW  655   0.851   2.850   2.566 -0.2406  0.5285  0.4054
  367SOL    HW1  656   0.785   2.905   2.524 -0.9801 -0.2552  0.5377
  367SOL    HW2  657   0.804   2.805   2.636  0.3808 -0.1989  0.3582
  367SOL     MW  658   0.837   2.851   2.570 -0.2558  0.3352  0.4163
  368SOL     OW  659   1.780   3.516   0.041  0.5578 -0.0081  0.2394
  368SOL    HW1  660   1.768   3.577   0.114  1.2945  1.6470 -0.9890
  368SOL    HW2  661   1.697   3.521  -0.007  0.7478  0.2722 -0.0549
  368SOL     MW  662   1.768   3.525   0.044  0.6764  0.2398  0.0445
  369SOL     OW  663   0.950   2.495   4.031  1.0358  0.1118  0.2250
  369SOL    HW1  664   0.881   2.429   4.035  1.5123 -0.3569  0.8199
  369SOL    HW2  665   1.031   2.445   4.034  1.4133  0.6279 -0.9990
  369SOL     MW  666   0.951   2.480   4.031  1.1451  0.1178  0.1440
  370SOL     OW  667   5.113   5.799   2.412  0.5506  0.5166  0.1458
  370SOL    HW1  668   5.085   5.791   2.503  2.0091 -0.7275  0.5081
  370SOL    HW2  669   5.039   5.839   2.367 -0.2995  0.8465  1.8152
  370SOL     MW  670   5.100   5.803   2.418  0.6289  0.3996  0.4058
  371SOL     OW  671   4.396   0.834   0.397 -0.3470  0.3034  0.1118
  371SOL    HW1  672   4.358   0.895   0.460  1.0094  2.0125 -0.7002
  371SOL    HW2  673   4.327   0.821   0.332 -1.6453 -1.2346  1.7281
  371SOL     MW  674   4.382   0.840   0.396 -0.3395  0.3253  0.2147
  372SOL     OW  675   5.634   2.128   4.136  0.4768  0.0553  0.2093
  372SOL    HW1  676   5.650   2.190   4.065  0.9963  0.6907  0.8791
  372SOL    HW2  677   5.721   2.110   4.173  0.1245  0.3002  1.1648
  372SOL     MW  678   5.647   2.133   4.131  0.4978  0.1683  0.4172
  373SOL     OW  679   5.729   1.837   1.127  0.1583 -0.2451  0.2386
  373SOL    HW1  680   5.749   1.814   1.037 -1.3641 -1.4399  0.1882
  373SOL    HW2  681   5.635   1.822   1.136  0.4884 -1.2936  2.3370
  373SOL     MW  682   5.720   1.832   1.117  0.0057 -0.5323  0.5007
  374SOL     OW  683   4.727   5.779   4.722  0.3673  0.0174  0.1262
  374SOL    HW1  684   4.727   5.833   4.801  0.4742 -0.0069  0.1415
  374SOL    HW2  685   4.690   5.696   4.750  0.5968 -0.0598  0.1954
  374SOL     MW  686   4.722   5.776   4.736  0.4106  0.0043  0.1373
  375SOL     OW  687   1.154   2.446   3.117  0.0611  0.1088  0.1047
  375SOL    HW1  688   1.225   2.501   3.149 -0.7013  0.7690  0.6813
  375SOL    HW2  689   1.189   2.357   3.120 -1.0276 -0.2639  5.8281
  375SOL     MW  690   1.168   2.441   3.121 -0.1758  0.1457  0.9110
  376SOL     OW  691   5.085   0.245   5.536  0.5237  0.1484 -0.2903
  376SOL    HW1  692   5.066   0.157   5.570  0.3195 -0.7284 -2.6301
  376SOL    HW2  693   5.178   0.258   5.554 -0.0060  0.5545  2.4462
  376SOL     MW  694   5.095   0.235   5.543  0.4296  0.0881 -0.2394
  377SOL     OW  695   0.505   2.186   2.615  0.4264  0.5586 -0.0950
  377SOL    HW1  696   0.473   2.250   2.677 -0.9011  0.3643 -0.5464
  377SOL    HW2  697   0.571   2.136   2.663  0.5566  1.4355  0.6462
  377SOL     MW  698   0.509   2.188   2.629  0.2731  0.6459 -0.0579
  378SOL     OW  699   4.078   5.486   3.044  0.5289 -0.1555 -0.0782
  378SOL    HW1  700   4.094   5.540   3.121  1.8587 -0.2872 -0.2517
  378SOL    HW2  701   4.075   5.396   3.077 -0.9520 -0.0542  0.1037
  378SOL     MW  702   4.080   5.481   3.058  0.5093 -0.1593 -0.0772
  379SOL     OW  703   1.783   5.822   3.427 -0.0671 -0.5042 -0.8319
  379SOL    HW1  704   1.870   5.782   3.429  0.2397  0.2454  1.1067
  379SOL    HW2  705   1.729   5.765   3.482 -0.5635 -0.4168 -1.2256
  379SOL     MW  706   1.787   5.809   3.434 -0.0913 -0.3967 -0.6342
  380SOL     OW  707   5.928   1.219   0.073 -0.3189 -0.4716 -0.1545
  380SOL    HW1  708   5.959   1.307   0.052  3.9329 -1.5127  1.3938
  380SOL    HW2  709   5.914   1.178  -0.013  1.8373  0.3465 -0.9366
  380SOL     MW  710   5.930   1.225   0.059  0.5012 -0.5002 -0.0564
  381SOL     OW  711   2.758   1.431   2.786  0.3641  0.2475  0.1989
  381SOL    HW1  712   2.745   1.338   2.769  0.1198 -0.0609  1.9523
  381SOL    HW2  713   2.703   1.475   2.721 -0.4458 -0.8497  0.1203
  381SOL     MW  714   2.749   1.425   2.775  0.2291  0.0675  0.4134
  382SOL     OW  715   1.805   2.063   3.695  0.1402  0.2140 -0.7416
  382SOL    HW1  716   1.756   2.083   3.615  0.8255  0.4064 -1.1192
  382SOL    HW2  717   1.797   1.968   3.705 -0.8782  0.3261 -0.4206
  382SOL     MW  718   1.797   2.053   3.686  0.0976  0.2527 -0.7489
  383SOL     OW  719   4.750   5.728   0.821 -0.5281 -0.3136  0.1216
  383SOL    HW1  720   4.751   5.821   0.840 -1.5661 -0.3916  0.6309
  383SOL    HW2  721   4.695   5.720   0.743  1.0727 -0.3212 -1.0262
  383SOL     MW  722   4.743   5.739   0.814 -0.4563 -0.3242  0.0399
  384SOL     OW  723   3.582   0.134   1.546  0.0620  0.2050  0.3823
  384SOL    HW1  724   3.541   0.207   1.593  0.9088  0.2096  1.1393
  384SOL    HW2  725   3.664   0.170   1.513  0.4012 -0.3425  0.6100
  384SOL     MW  726   3.587   0.148   1.548  0.2136  0.1355  0.5082
  385SOL     OW  727   4.799   0.048   3.857  0.4621  0.0080 -0.0071
  385SOL    HW1  728   4.858   0.031   3.930  1.3443  0.8550 -0.5075
  385SOL    HW2  729   4.781   0.142   3.863  0.7805  0.1371 -1.0646
  385SOL     MW  730   4.804   0.058   3.867  0.6161  0.1330 -0.2062
  386SOL     OW  731   2.231   0.570   0.348 -0.4276 -0.0137  0.0868
  386SOL    HW1  732   2.277   0.589   0.267 -0.9526 -0.6081 -0.3613
  386SOL    HW2  733   2.153   0.626   0.345  0.7196  1.6587  1.2698
  386SOL     MW  734   2.227   0.579   0.337 -0.3481  0.1243  0.1809
  387SOL     OW  735   4.977   2.258   3.037  0.1007  0.2556  0.1465
  387SOL    HW1  736   4.947   2.190   2.977  1.6372  2.1022 -2.8191
  387SOL    HW2  737   4.909   2.263   3.104 -0.8504 -3.0045 -0.4951
  387SOL     MW  738   4.964   2.250   3.038  0.1760  0.0746 -0.3152
  388SOL     OW  739   5.257   0.566   0.306 -0.3668  0.6564  0.7537
  388SOL    HW1  740   5.226   0.645   0.261 -1.6458 -0.2129  0.0613
  388SOL    HW2  741   5.352   0.572   0.303 -0.4542  1.9051  0.2309
  388SOL     MW  742   5.265   0.577   0.300 -0.5417  0.7049  0.5981
  389SOL     OW  743   3.176   1.698   0.698 -0.1281 -0.0225 -0.3794
  389SOL    HW1  744   3.196   1.660   0.613  0.5811 -1.1105  0.2721
  389SOL    HW2  745   3.105   1.760   0.680 -0.2347 -0.5119 -1.6894
  389SOL     MW  746   3.170   1.701   0.685 -0.0508 -0.2245 -0.4637
  390SOL     OW  747   2.129   3.719   3.725  0.3202  0.0626  0.1665
  390SOL    HW1  748   2.077   3.695   3.648  0.5308  2.1471 -0.6664
  390SOL    HW2  749   2.082   3.682   3.799  0.6014 -2.7951 -1.0122
  390SOL     MW  750   2.117   3.711   3.725  0.3831 -0.0362 -0.0911
  391SOL     OW  751   3.824   2.660   0.823  0.2093  0.1833 -0.4875
  391SOL    HW1  752   3.906   2.610   0.816  0.9256  0.8769  2.2263
  391SOL    HW2  753   3.780   2.645   0.740  0.6450 -4.5238 -0.0319
  391SOL     MW  754   3.829   2.651   0.811  0.3564 -0.3304 -0.0818
  392SOL     OW  755   4.186   1.568   3.005 -0.2122 -0.2581  0.0200
  392SOL    HW1  756   4.251   1.615   3.057 -2.6620  2.6265  0.6351
  392SOL    HW2  757   4.231   1.546   2.924  1.1359  3.0252 -0.1931
  392SOL     MW  758   4.200   1.572   3.001 -0.3533  0.5314  0.0713
  393SOL     OW  759   1.883   1.638   1.596  0.3091  0.1404  0.7439
  393SOL    HW1  760   1.964   1.603   1.557 -1.3008 -2.0562 -0.7870
  393SOL    HW2  761   1.888   1.612   1.688  0.2657 -2.1355  0.1349
  393SOL     MW  762   1.894   1.630   1.603  0.0974 -0.4323  0.4700
  394SOL     OW  763   3.661   2.305   1.107  0.1894  0.2292 -0.4863
  394SOL    HW1  764   3.727   2.289   1.175  0.7745  2.9142 -0.3820
  394SOL    HW2  765   3.577   2.292   1.151  0.5785  0.7305  0.4130
  394SOL     MW  766   3.659   2.301   1.121  0.3145  0.6371 -0.3577
  395SOL     OW  767   2.690   0.011   1.343  0.0797 -0.6639  0.1032
  395SOL    HW1  768   2.637  -0.001   1.265  1.3391 -1.4770 -0.6426
  395SOL    HW2  769   2.741   0.090   1.326  1.3460 -1.5943 -0.4779
  395SOL     MW  770   2.690   0.019   1.331  0.4029 -0.8871 -0.0666
  396SOL     OW  771   1.551   1.889   3.165  0.3640 -0.4239  0.3046
  396SOL    HW1  772   1.576   1.976   3.134  0.3580 -0.7076 -0.5074
  396SOL    HW2  773   1.633   1.841   3.170  0.2282 -0.7141 -0.3198
  396SOL     MW  774   1.565   1.894   3.162  0.3458 -0.4972  0.1209
  397SOL     OW  775   1.339   3.888   0.540  0.2345  0.5732 -0.0727
  397SOL    HW1  776   1.413   3.873   0.481 -0.2622  1.1947 -0.8713
  397SOL    HW2  777   1.322   3.982   0.534 -0.3389  0.5053  0.4370
  397SOL     MW  778   1.346   3.898   0.532  0.0975  0.6440 -0.1097
  398SOL     OW  779   0.569   4.592   5.711 -0.2068  0.3282 -0.4434
  398SOL    HW1  780   0.609   4.677   5.697 -2.6192  1.4934 -0.5181
  398SOL    HW2  781   0.475   4.608   5.704 -0.7335 -2.2257  0.1538
  398SOL     MW  782   0.562   4.605   5.708 -0.5831  0.1502 -0.3762
  399SOL     OW  783   4.701   0.763   4.113  0.5054  0.7557  0.2518
  399SOL    HW1  784   4.781   0.720   4.084  1.2399  0.6660  2.3334
  399SOL    HW2  785   4.726   0.854   4.126  0.4224  0.6088  1.4738
  399SOL     MW  786   4.714   0.769   4.111  0.5894  0.7254  0.6747
  400SOL     OW  787   4.108   2.610   1.464 -0.2927 -0.0798 -0.6492
  400SOL    HW1  788   4.156   2.614   1.381 -1.5021 -1.0572 -1.4110
  400SOL    HW2  789   4.058   2.692   1.466 -0.0507  0.0725 -0.7485
  400SOL     MW  790   4.108   2.621   1.454 -0.4168 -0.1853 -0.7594
  401SOL     OW  791   1.867   4.889   4.745  0.4256  0.3860  0.2592
  401SOL    HW1  792   1.797   4.825   4.759  1.1507 -0.8875 -1.8838
  401SOL    HW2  793   1.934   4.866   4.810  0.3274 -0.5111  0.0474
  401SOL     MW  794   1.866   4.878   4.755  0.5058  0.1082 -0.0424
  402SOL     OW  795   5.647   4.082   5.783  0.0174  0.4503  0.0789
  402SOL    HW1  796   5.564   4.124   5.759  0.0879  0.6472  0.1780
  402SOL    HW2  797   5.714   4.137   5.744  0.0511 -1.1742 -2.3301
  402SOL     MW  798   5.645   4.094   5.775  0.0310  0.2675 -0.2160
  403SOL     OW  799   0.415   2.645   4.168 -0.1659  0.2147  0.3705
  403SOL    HW1  800   0.326   2.647   4.203 -0.3196 -1.3980  0.0918
  403SOL    HW2  801   0.405   2.666   4.075 -0.3914 -1.0998  0.0909
  403SOL     MW  802   0.402   2.648   4.161 -0.2145 -0.1600  0.2990
  404SOL     OW  803   1.514   3.022   1.295  0.4524 -0.2751  0.3845
  404SOL    HW1  804   1.444   2.995   1.236 -0.4081  0.2283  1.1696
  404SOL    HW2  805   1.478   3.009   1.383  1.4042 -0.1754  0.7970
  404SOL     MW  806   1.501   3.017   1.299  0.4640 -0.1981  0.5379
  405SOL     OW  807   0.526   4.407   1.610  0.5254 -0.0778 -0.2746
  405SOL    HW1  808   0.482   4.340   1.663 -2.3643  1.2687 -0.8967
  405SOL    HW2  809   0.589   4.358   1.557  0.1293 -2.0001  0.9810
  405SOL     MW  810   0.529   4.392   1.610  0.1048 -0.1516 -0.1935
  406SOL     OW  811   3.362   4.305   0.736  0.3451  0.3770  0.1884
  406SOL    HW1  812   3.425   4.285   0.805  1.5606  1.3936 -0.5827
  406SOL    HW2  813   3.402   4.269   0.657 -1.4122 -1.4970  0.1226
  406SOL     MW  814   3.376   4.298   0.735  0.2756  0.2675  0.0812
  407SOL     OW  815   5.067   3.121   0.361 -0.5980 -0.5586  0.4589
  407SOL    HW1  816   5.016   3.042   0.341  0.3926 -1.5230  1.6551
  407SOL    HW2  817   5.143   3.089   0.409 -1.3894  1.3642  3.1133
  407SOL     MW  818   5.070   3.107   0.365 -0.5727 -0.4358  0.9518
  408SOL     OW  819   5.755   1.880   1.394  0.2338  0.4496 -0.5699
  408SOL    HW1  820   5.728   1.870   1.303  0.1903 -1.5475 -0.3594
  408SOL    HW2  821   5.848   1.860   1.395 -0.2103 -1.7273  0.1472
  408SOL     MW  822   5.763   1.876   1.383  0.1707 -0.0845 -0.4512
  409SOL     OW  823   4.590   3.575   3.352  0.1169  0.1752  0.3468
  409SOL    HW1  824   4.653   3.647   3.346  0.2623  0.0448  0.2950
  409SOL    HW2  825   4.533   3.599   3.425  0.8477 -0.1798  1.0441
  409SOL     MW  826   4.591   3.587   3.361  0.2294  0.1130  0.4296
  410SOL     OW  827   0.922   3.240   3.192  0.5980 -0.0446  0.1881
  410SOL    HW1  828   0.921   3.186   3.271  0.1623 -1.0946 -0.5188
  410SOL    HW2  829   1.007   3.221   3.151 -0.3258 -1.7076 -1.0539
  410SOL     MW  830   0.933   3.231   3.197  0.4240 -0.3920 -0.0613
  411SOL     OW  831   2.238   2.476   4.264  0.1121  0.4334 -0.1534
  411SOL    HW1  832   2.182   2.438   4.196 -1.4910  3.0172 -0.3247
  411SOL    HW2  833   2.301   2.530   4.217  0.2402  0.6894  0.3117
  411SOL     MW  834   2.239   2.478   4.249 -0.0770  0.7968 -0.1159
  412SOL     OW  835   4.364   4.817   2.616  0.5757 -0.0050 -0.8002
  412SOL    HW1  836   4.415   4.832   2.695  1.6703  1.8117 -1.8285
  412SOL    HW2  837   4.284   4.775   2.647  0.3774  1.9235  1.4382
  412SOL     MW  838   4.360   4.813   2.630  0.6905  0.4745 -0.6454
  413SOL     OW  839   3.117   2.423   5.431 -0.0520  0.1305 -0.1749
  413SOL    HW1  840   3.025   2.431   5.403 -0.9138 -0.1077  2.4657
  413SOL    HW2  841   3.151   2.350   5.380 -1.9077 -1.0477  0.2282
  413SOL     MW  842   3.110   2.415   5.421 -0.4003 -0.0510  0.2146
  414SOL     OW  843   0.230   4.482   0.403  0.3313 -0.0249 -0.3670
  414SOL    HW1  844   0.313   4.483   0.451  0.8162  1.3130 -1.1729
  414SOL    HW2  845   0.173   4.540   0.453  0.2871  0.0236 -0.4735
  414SOL     MW  846   0.233   4.490   0.415  0.3877  0.1526 -0.4838
  415SOL     OW  847   3.413   1.673   1.727  0.1978 -0.3134  0.2734
  415SOL    HW1  848   3.387   1.741   1.665  0.0960 -0.8370 -0.2659
  415SOL    HW2  849   3.463   1.720   1.794  0.3605  0.2496 -0.2344
  415SOL     MW  850   3.416   1.688   1.727  0.2058 -0.3083  0.1392
  416SOL     OW  851   2.397   5.454   0.687  0.2332 -0.1964  0.3148
  416SOL    HW1  852   2.388   5.498   0.772  1.7101  0.6885  0.0349
  416SOL    HW2  853   2.481   5.409   0.693  0.3075 -0.1899 -0.6417
  416SOL     MW  854   2.406   5.454   0.699  0.4318 -0.0820  0.1566
  417SOL     OW  855   4.438   4.211   3.196 -0.6049  0.3039 -0.3210
  417SOL    HW1  856   4.444   4.294   3.243  0.9434 -0.5253  1.0009
  417SOL    HW2  857   4.496   4.223   3.120 -1.0715  0.7299 -0.6143
  417SOL     MW  858   4.446   4.223   3.192 -0.4663  0.2522 -0.1891
  418SOL     OW  859   3.072   1.700   5.403 -0.1500  0.2784 -0.5840
  418SOL    HW1  860   3.164   1.680   5.389 -0.3059 -1.0309  0.1050
  418SOL    HW2  861   3.069   1.739   5.491 -0.4697 -1.4621  0.2000
  418SOL     MW  862   3.083   1.702   5.413 -0.2110 -0.1119 -0.3948
  419SOL     OW  863   1.245   1.045   1.693 -0.2949 -0.2498 -0.4854
  419SOL    HW1  864   1.300   1.120   1.716  0.5646 -1.1673  0.5316
  419SOL    HW2  865   1.155   1.075   1.712  0.0404  0.5106 -0.0592
  419SOL     MW  866   1.240   1.059   1.699 -0.1420 -0.2698 -0.3006
  420SOL     OW  867   5.120   0.945   5.414  0.2116  0.5052  0.1542
  420SOL    HW1  868   5.079   0.944   5.501  0.7266 -0.4001  0.3887
  420SOL    HW2  869   5.048   0.926   5.354 -0.2128  1.4519  0.3438
  420SOL     MW  870   5.105   0.943   5.418  0.2232  0.5105  0.2089
  421SOL     OW  871   2.090   1.359   0.458  0.1482 -0.0688 -0.5841
  421SOL    HW1  872   2.183   1.356   0.438 -0.1685  1.2097 -2.4159
  421SOL    HW2  873   2.077   1.442   0.504 -0.1207 -0.1260 -0.5517
  421SOL     MW  874   2.100   1.370   0.461  0.0732  0.0876 -0.8144
  422SOL     OW  875   0.509   3.566   5.522  0.1352  0.3602 -0.0944
  422SOL    HW1  876   0.491   3.508   5.596  0.8855 -0.2276 -0.3592
  422SOL    HW2  877   0.552   3.642   5.561 -1.2391  0.9323  0.3080
  422SOL     MW  878   0.512   3.568   5.536  0.0553  0.3581 -0.0768
  423SOL     OW  879   3.428   1.147   1.440 -0.6580 -0.5282  0.2062
  423SOL    HW1  880   3.396   1.211   1.503 -0.6743  0.8989 -1.2231
  423SOL    HW2  881   3.446   1.198   1.360 -0.9014 -2.3309 -1.0352
  423SOL     MW  882   3.426   1.162   1.438 -0.6914 -0.5763 -0.1358
  424SOL     OW  883   0.250   5.191   5.822  0.6793 -0.3254 -0.2646
  424SOL    HW1  884   0.341   5.219   5.827  0.8455 -0.7121 -1.0948
  424SOL    HW2  885   0.200   5.272   5.812  0.7127  0.1058  2.4685
  424SOL     MW  886   0.255   5.205   5.822  0.7049 -0.3195 -0.0210
  425SOL     OW  887   1.334   4.731   4.692 -0.0353 -0.1228  0.2147
  425SOL    HW1  888   1.293   4.817   4.703 -2.2710 -0.9870 -0.9258
  425SOL    HW2  889   1.292   4.696   4.613  0.7999 -2.2779  0.7166
  425SOL     MW  890   1.323   4.738   4.683 -0.2145 -0.5093  0.1330
  426SOL     OW  891   2.707   1.637   2.346  0.0859 -0.2429  0.0877
  426SOL    HW1  892   2.654   1.712   2.317  0.0321 -1.1416 -2.2383
  426SOL    HW2  893   2.648   1.562   2.338  0.3760 -0.6673  1.6934
  426SOL     MW  894   2.693   1.637   2.342  0.1161 -0.4123 -0.0045
  427SOL     OW  895   4.313   0.838   2.299 -0.4542  0.0920  0.0074
  427SOL    HW1  896   4.245   0.830   2.367  1.7105  0.6227  2.3359
  427SOL    HW2  897   4.323   0.933   2.287 -0.6396  0.0012 -0.8812
  427SOL     MW  898   4.306   0.849   2.307 -0.2007  0.1483  0.1917
  428SOL     OW  899   0.265   3.385   1.314  0.0087  0.1560 -0.2502
  428SOL    HW1  900   0.345   3.344   1.280  0.2956 -0.5140  1.1836
  428SOL    HW2  901   0.297   3.453   1.372 -0.4494 -0.7957  1.1412
  428SOL     MW  902   0.280   3.388   1.317 -0.0132 -0.0515  0.1113
  429SOL     OW  903   0.895   4.396   1.662  0.1392 -0.5916 -0.5377
  429SOL    HW1  904   0.826   4.353   1.611 -0.3701 -0.2975 -0.0962
  429SOL    HW2  905   0.972   4.339   1.650 -1.3051 -3.3873  2.5905
  429SOL     MW  906   0.896   4.383   1.654 -0.1109 -0.9122 -0.0808
  430SOL     OW  907   1.968   4.734   0.451  0.1838 -0.2719  0.2969
  430SOL    HW1  908   2.043   4.707   0.503 -0.2291  1.3365  1.7777
  430SOL    HW2  909   1.930   4.807   0.499  0.0139  1.5651 -2.4896
  430SOL     MW  910   1.972   4.740   0.464  0.1093  0.1688  0.1298
  431SOL     OW  911   2.059   5.492   3.065  0.5245  0.0645 -0.6267
  431SOL    HW1  912   2.139   5.520   3.020  0.2187 -0.3815 -1.4784
  431SOL    HW2  913   2.005   5.455   2.995  0.3022 -1.2413  0.2161
  431SOL     MW  914   2.063   5.490   3.050  0.4570 -0.1602 -0.6278
  432SOL     OW  915   4.098   1.885   0.290 -0.1178 -0.3667  0.5959
  432SOL    HW1  916   4.032   1.932   0.341  0.8351 -0.3221  1.8223
  432SOL    HW2  917   4.180   1.931   0.309 -0.0427  1.0184 -2.6798
  432SOL     MW  918   4.100   1.897   0.299  0.0138 -0.1837  0.3335
  433SOL     OW  919   3.327   5.877   0.891 -0.3248  0.0129 -0.5249
  433SOL    HW1  920   3.395   5.848   0.952  0.1017 -0.0330 -1.0244
  433SOL    HW2  921   3.344   5.970   0.879 -1.3745  0.3747  0.6639
  433SOL     MW  922   3.338   5.885   0.897 -0.4044  0.0539 -0.4367
  434SOL     OW  923   4.529   0.072   3.589  0.5691 -0.6726  0.1440
  434SOL    HW1  924   4.582  -0.005   3.571 -0.9613 -1.3190 -1.7067
  434SOL    HW2  925   4.456   0.040   3.642 -0.0631 -0.4948 -0.6131
  434SOL     MW  926   4.526   0.058   3.594  0.2918 -0.7326 -0.1898
  435SOL     OW  927   2.925   1.616   1.054 -0.3478  0.8747 -0.5710
  435SOL    HW1  928   2.861   1.676   1.015  0.8007  1.6672 -1.2463
  435SOL    HW2  929   3.009   1.660   1.044  0.2768 -0.0339  0.5857
  435SOL     MW  930   2.927   1.629   1.048 -0.1209  0.8597 -0.5093
  436SOL     OW  931   4.009   5.829   2.557  0.3309  0.3955 -0.0504
  436SOL    HW1  932   3.955   5.909   2.555  0.7934  0.7421  1.2168
  436SOL    HW2  933   3.947   5.758   2.542 -0.1429  0.9505 -0.8143
  436SOL     MW  934   3.994   5.830   2.555  0.3300  0.5112  0.0141
  437SOL     OW  935   1.432   4.838   4.373 -0.4574 -0.0783  0.0507
  437SOL    HW1  936   1.407   4.930   4.383  2.3242  0.6492  0.9043
  437SOL    HW2  937   1.457   4.829   4.281  2.1270  0.8643  0.5940
  437SOL     MW  938   1.432   4.848   4.363  0.2295  0.1354  0.2294
  438SOL     OW  939   3.905   2.974   1.171  0.0141  0.0135  0.2046
  438SOL    HW1  940   3.884   3.000   1.081  0.9982 -2.3431 -0.7152
  438SOL    HW2  941   3.998   2.952   1.169 -0.1727 -0.9279  1.5899
  438SOL     MW  942   3.914   2.975   1.159  0.1161 -0.4084  0.2643
  439SOL     OW  943   1.472   2.011   0.727  0.1989  0.2699  0.2622
  439SOL    HW1  944   1.380   2.025   0.748 -0.1477 -0.1209 -0.9553
  439SOL    HW2  945   1.476   2.012   0.632  0.9945 -2.5135  0.2193
  439SOL     MW  946   1.461   2.013   0.718  0.2563 -0.1364  0.1009
  440SOL     OW  947   0.125   0.336   4.255  0.3645  0.3073  0.2054
  440SOL    HW1  948   0.031   0.321   4.268  0.7810 -0.0703  3.1378
  440SOL    HW2  949   0.164   0.249   4.257  0.8673  0.5233 -0.1635
  440SOL     MW  950   0.118   0.323   4.257  0.4822  0.2866  0.5336
  441SOL     OW  951   0.348   3.932   3.032  0.1436  0.1235  0.5746
  441SOL    HW1  952   0.408   3.965   2.965 -1.3721  0.9003 -0.4246
  441SOL    HW2  953   0.266   3.919   2.985 -0.8798  0.4748  2.2565
  441SOL     MW  954   0.345   3.934   3.017 -0.1814  0.2680  0.6621
  442SOL     OW  955   2.844   2.125   5.564  0.1016 -0.7191  0.7517
  442SOL    HW1  956   2.769   2.082   5.606 -1.4028  1.0049 -0.1090
  442SOL    HW2  957   2.856   2.206   5.613  1.3983 -0.9514  0.8486
  442SOL     MW  958   2.836   2.130   5.575  0.0749 -0.5283  0.6542
  443SOL     OW  959   2.492   0.109   1.542  0.5633  0.1526  0.3972
  443SOL    HW1  960   2.425   0.047   1.513  1.6884 -0.5211 -0.8184
  443SOL    HW2  961   2.571   0.083   1.494  1.8039  0.6883  2.1125
  443SOL     MW  962   2.493   0.098   1.532  0.8659  0.1349  0.4610
  444SOL     OW  963   0.653   0.124   4.317  0.0864 -0.3930 -0.1792
  444SOL    HW1  964   0.664   0.130   4.412 -1.1262  1.0803 -0.1058
  444SOL    HW2  965   0.585   0.057   4.305 -1.9664  1.5365  0.1987
  444SOL     MW  966   0.646   0.116   4.327 -0.3316  0.0426 -0.1211
  445SOL     OW  967   4.346   0.453   5.020 -0.6204  0.0710  0.4255
  445SOL    HW1  968   4.315   0.406   4.943 -1.0611 -0.5593  0.9903
  445SOL    HW2  969   4.363   0.542   4.988 -1.3121 -0.0431 -0.2805
  445SOL     MW  970   4.344   0.459   5.006 -0.7653 -0.0243  0.4077
  446SOL     OW  971   5.258   1.626   2.326  0.1401 -0.1958 -0.0805
  446SOL    HW1  972   5.273   1.588   2.239  1.3618  0.4686 -0.1793
  446SOL    HW2  973   5.209   1.707   2.309 -0.7377 -0.7149 -0.0380
  446SOL     MW  974   5.254   1.631   2.313  0.1836 -0.1771 -0.0877
  447SOL     OW  975   5.508   2.860   4.692 -0.1908  0.0161  0.0954
  447SOL    HW1  976   5.429   2.843   4.642 -0.1233  2.3750 -0.8938
  447SOL    HW2  977   5.571   2.893   4.628  1.1849 -0.6651  1.0733
  447SOL     MW  978   5.506   2.862   4.678 -0.0057  0.2308  0.0935
  448SOL     OW  979   3.033   2.624   3.808  0.2785  0.0015 -0.4474
  448SOL    HW1  980   3.002   2.562   3.742  0.1010 -1.3110  0.8170
  448SOL    HW2  981   3.127   2.632   3.792  0.5176 -1.5321  0.1039
  448SOL     MW  982   3.041   2.617   3.798  0.2863 -0.3631 -0.2148
  449SOL     OW  983   5.398   3.314   0.510  0.9174 -0.2124  0.7719
  449SOL    HW1  984   5.328   3.369   0.474  0.2943 -1.2461  0.3650
  449SOL    HW2  985   5.379   3.308   0.604 -0.7857 -2.1917  0.3524
  449SOL     MW  986   5.386   3.320   0.518  0.6199 -0.5982  0.6661
  450SOL     OW  987   5.062   2.008   5.291 -0.3077 -0.2440 -0.0648
  450SOL    HW1  988   5.097   2.029   5.204  2.2406 -2.2169  0.4113
  450SOL    HW2  989   5.011   1.928   5.278  1.0166 -1.1929  0.4008
  450SOL     MW  990   5.060   2.000   5.278  0.1884 -0.6180  0.0558
  451SOL     OW  991   0.191   5.168   5.436  0.1988  0.4302 -0.6195
  451SOL    HW1  992   0.279   5.139   5.461  0.7930  0.5360 -2.5001
  451SOL    HW2  993   0.183   5.255   5.473  1.6996  1.2589 -2.1611
  451SOL     MW  994   0.202   5.175   5.444  0.4669  0.5498 -1.0576
  452SOL     OW  995   0.785   3.914   2.891  0.4309 -0.9000 -0.1007
  452SOL    HW1  996   0.879   3.905   2.908 -0.1861 -1.9334  2.9702
  452SOL    HW2  997   0.759   3.827   2.861  0.6188 -0.3284 -1.9929
  452SOL     MW  998   0.794   3.901   2.889  0.3760 -0.9592  0.0503
  453SOL     OW  999   1.314   2.110   4.644  0.6638 -0.6557  0.4661
  453SOL    HW1 1000   1.237   2.145   4.688  1.2372  1.8113 -0.4489
  453SOL    HW2 1001   1.369   2.078   4.716 -0.8776 -1.8273  1.1671
  453SOL     MW 1002   1.311   2.110   4.659  0.5398 -0.4900  0.4387
  454SOL     OW 1003   3.249   4.402   1.534 -0.1037 -0.5417 -0.1273
  454SOL    HW1 1004   3.303   4.341   1.484 -1.0629 -1.1537 -0.4358
  454SOL    HW2 1005   3.219   4.466   1.470  0.0262 -0.3657 -0.0123
  454SOL     MW 1006   3.252   4.402   1.519 -0.2100 -0.5980 -0.1521
  455SOL     OW 1007   3.968   4.315   0.017 -0.2667  0.5063  0.6346
  455SOL    HW1 1008   4.061   4.337   0.014  0.4035 -2.3436 -1.3848
  455SOL    HW2 1009   3.965   4.234   0.068 -1.6421  0.5794  0.6781
  455SOL     MW 1010   3.980   4.307   0.023 -0.3569  0.1512  0.3816
  456SOL     OW 1011   3.995   3.338   3.946 -0.4496 -0.4788 -0.1167
  456SOL    HW1 1012   4.071   3.362   3.998  0.2458 -0.2949 -1.1997
  456SOL    HW2 1013   3.989   3.243   3.954  1.9245 -0.9012 -2.7210
  456SOL     MW 1014   4.004   3.329   3.953 -0.0567 -0.5093 -0.5884
  457SOL     OW 1015   5.216   2.767   1.993  0.0694 -0.0753  0.6446
  457SOL    HW1 1016   5.151   2.833   2.015  0.9829  1.6199 -1.5413
  457SOL    HW2 1017   5.171   2.684   2.007 -2.1270  1.0356  0.4716
  457SOL     MW 1018   5.202   2.765   1.998 -0.0949  0.2840  0.3426
  458SOL     OW 1019   1.325   0.412   0.668 -0.3011  0.2397  0.2842
  458SOL    HW1 1020   1.366   0.327   0.653  0.3714  0.1651  2.4672
  458SOL    HW2 1021   1.239   0.391   0.705 -0.4725  0.4969  0.0334
  458SOL     MW 1022   1.319   0.398   0.671 -0.2370  0.2630  0.5315
  459SOL     OW 1023   1.713   3.488   1.927  0.2882 -0.0502  0.1619
  459SOL    HW1 1024   1.696   3.513   1.837  1.2013 -0.4772 -0.1295
  459SOL    HW2 1025   1.644   3.531   1.977 -0.1121  0.3340 -0.7135
  459SOL     MW 1026   1.702   3.497   1.922  0.3539 -0.0558  0.0126
  460SOL     OW 1027   0.927   1.015   1.496  0.3290  0.8021  0.1097
  460SOL    HW1 1028   0.911   1.067   1.417  0.1544 -0.1360 -0.4771
  460SOL    HW2 1029   0.915   1.077   1.568 -1.1782  1.2645 -0.5156
  460SOL     MW 1030   0.924   1.030   1.495  0.1137  0.7412 -0.0454
  461SOL     OW 1031   0.155   1.751   5.227 -0.4204  0.2344 -0.7930
  461SOL    HW1 1032   0.159   1.655   5.232 -0.8429  0.2186 -0.7509
  461SOL    HW2 1033   0.243   1.777   5.200 -0.2014 -0.1444 -0.4598
  461SOL     MW 1034   0.167   1.742   5.224 -0.4464  0.1838 -0.7453
  462SOL     OW 1035   1.794   2.447   1.783 -0.0198 -0.0454 -0.2837
  462SOL    HW1 1036   1.788   2.468   1.876 -0.6316  0.3346 -0.4095
  462SOL    HW2 1037   1.827   2.357   1.781 -1.4384 -0.5923  0.3349
  462SOL     MW 1038   1.797   2.438   1.795 -0.2798 -0.0668 -0.2207
  463SOL     OW 1039   1.841   4.202   1.104  0.4948  0.2253 -0.2169
  463SOL    HW1 1040   1.875   4.112   1.109  0.0818  0.1647  1.8719
  463SOL    HW2 1041   1.750   4.191   1.079  0.3834  0.0454  0.2639
  463SOL     MW 1042   1.834   4.189   1.101  0.4278  0.1936  0.1121
  464SOL     OW 1043   1.772   0.085   3.471 -0.2366 -0.4678  0.7024
  464SOL    HW1 1044   1.682   0.116   3.462 -0.1336 -0.8236 -2.0130
  464SOL    HW2 1045   1.765  -0.010   3.470  0.3389 -0.5209 -2.1707
  464SOL     MW 1046   1.759   0.077   3.470 -0.1497 -0.5202 -0.0129
  465SOL     OW 1047   2.285   1.808   3.357  0.1350 -0.5125  0.1647
  465SOL    HW1 1048   2.276   1.903   3.368  0.1360 -0.5686  0.6411
  465SOL    HW2 1049   2.280   1.773   3.446  0.3981 -0.9391  0.0095
  465SOL     MW 1050   2.283   1.816   3.370  0.1688 -0.5742  0.2058
  466SOL     OW 1051   3.118   3.178   0.623 -0.1700  0.1637  0.2336
  466SOL    HW1 1052   3.109   3.269   0.650  2.2509  0.2628  0.8397
  466SOL    HW2 1053   3.213   3.164   0.615 -0.5905 -1.4014 -2.9892
  466SOL     MW 1054   3.129   3.188   0.625  0.0858 -0.0236 -0.1013
  467SOL     OW 1055   3.632   3.293   4.577 -0.2009 -0.2733  0.4320
  467SOL    HW1 1056   3.581   3.373   4.559  0.5252  0.0613 -0.1487
  467SOL    HW2 1057   3.671   3.310   4.663 -0.6694 -0.3292  0.6601
  467SOL     MW 1058   3.630   3.306   4.586 -0.1676 -0.2379  0.3867
  468SOL     OW 1059   4.201   4.088   0.734 -0.3561 -0.3102  0.0300
  468SOL    HW1 1060   4.145   4.112   0.661 -1.2529  0.0012  0.8113
  468SOL    HW2 1061   4.160   4.129   0.810 -0.3369 -1.9833  0.9631
  468SOL     MW 1062   4.189   4.096   0.735 -0.4683 -0.4845  0.2494
  469SOL     OW 1063   4.493   2.005   1.127 -0.2462 -0.1216  0.5650
  469SOL    HW1 1064   4.405   1.972   1.144 -0.4492  1.1636  2.0545
  469SOL    HW2 1065   4.479   2.086   1.078  0.0721  0.4717  1.4486
  469SOL     MW 1066   4.480   2.011   1.123 -0.2308  0.1187  0.8688
  470SOL     OW 1067   2.263   2.617   0.118 -0.1239 -0.4097  0.0475
  470SOL    HW1 1068   2.212   2.696   0.099 -0.3238 -0.1429  1.6172
  470SOL    HW2 1069   2.348   2.650   0.145 -0.2379 -0.7146  0.7968
  470SOL     MW 1070   2.267   2.632   0.119 -0.1643 -0.4146  0.3443
  471SOL     OW 1071   0.149   5.241   3.405 -0.3622 -0.4710 -0.8353
  471SOL    HW1 1072   0.209   5.225   3.332  1.3234 -1.7788  0.7743
  471SOL    HW2 1073   0.064   5.212   3.373  0.3308 -0.9213 -2.3179
  471SOL     MW 1074   0.146   5.235   3.391 -0.0577 -0.6962 -0.8192
  472SOL     OW 1075   2.366   2.994   4.440 -0.8948  0.3014  0.3711
  472SOL    HW1 1076   2.347   3.055   4.511  1.9531  1.5331  0.1468
  472SOL    HW2 1077   2.391   3.051   4.366  2.2212 -1.0922  0.2820
  472SOL     MW 1078   2.366   3.009   4.440 -0.1314  0.2809  0.3309
  473SOL     OW 1079   0.926   5.527   1.049 -0.2576  0.6195 -0.4112
  473SOL    HW1 1080   0.998   5.589   1.058  0.0434  0.2914 -0.5299
  473SOL    HW2 1081   0.965   5.442   1.070 -0.5788  0.4243 -0.5954
  473SOL     MW 1082   0.940   5.524   1.053 -0.2601  0.5531 -0.4500
  474SOL     OW 1083   1.785   0.033   3.176 -0.1354 -0.1218  0.0029
  474SOL    HW1 1084   1.870   0.020   3.134 -0.3012  0.4184 -0.4949
  474SOL    HW2 1085   1.807   0.067   3.263  0.1502  0.2500 -0.2129
  474SOL     MW 1086   1.799   0.035   3.182 -0.1200 -0.0051 -0.0882
  475SOL     OW 1087   0.176   2.507   1.888 -0.2306 -0.0502 -0.2463
  475SOL    HW1 1088   0.182   2.525   1.981  0.7526 -1.8836  0.0696
  475SOL    HW2 1089   0.105   2.444   1.880 -1.1176  0.9968 -0.9010
  475SOL     MW 1090   0.168   2.501   1.899 -0.2183 -0.1504 -0.2897
  476SOL     OW 1091   3.474   0.750   3.471 -0.0747 -0.5554 -0.3430
  476SOL    HW1 1092   3.412   0.799   3.523 -0.2609 -0.8894 -0.2490
  476SOL    HW2 1093   3.554   0.803   3.472 -0.8910  0.7626 -1.9468
  476SOL     MW 1094   3.477   0.763   3.478 -0.2031 -0.4294 -0.5364
  477SOL     OW 1095   5.323   3.767   3.939  0.2349  0.0728  0.0681
  477SOL    HW1 1096   5.245   3.806   3.900  0.6130  1.3169  0.5062
  477SOL    HW2 1097   5.392   3.783   3.874  0.0921 -1.1726 -0.3925
  477SOL     MW 1098   5.322   3.774   3.926  0.2651  0.0730  0.0653
  478SOL     OW 1099   3.013   4.829   4.398  0.4509 -0.3156  0.9213
  478SOL    HW1 1100   3.011   4.743   4.356  1.0382  0.0705  0.1055
  478SOL    HW2 1101   2.923   4.859   4.396  0.5796 -0.0087 -0.6629
  478SOL     MW 1102   3.002   4.822   4.393  0.5426 -0.2270  0.6142
  479SOL     OW 1103   5.910   4.687   1.186  0.0971 -0.8383 -0.6378
  479SOL    HW1 1104   5.931   4.780   1.179  0.8267 -1.0617 -1.4159
  479SOL    HW2 1105   5.990   4.641   1.162  0.0824 -1.6742  0.8265
  479SOL     MW 1106   5.923   4.693   1.182  0.1884 -0.9737 -0.5499
  480SOL     OW 1107   3.571   1.081   4.770 -0.4059  0.1733  0.6082
  480SOL    HW1 1108   3.643   1.097   4.832  1.7419  1.4735 -2.1311
  480SOL    HW2 1109   3.591   0.996   4.732 -1.5364 -0.4589  1.3773
  480SOL     MW 1110   3.583   1.072   4.773 -0.2759  0.2589  0.3557
  481SOL     OW 1111   5.776   3.146   5.089 -0.2657  0.1978  0.4294
  481SOL    HW1 1112   5.760   3.171   5.180  0.8022 -0.2346  0.7433
  481SOL    HW2 1113   5.872   3.148   5.081 -0.1734 -3.0804  0.2566
  481SOL     MW 1114   5.787   3.150   5.100 -0.1168 -0.2770  0.4468
  482SOL     OW 1115   5.131   4.091   1.239  1.1275 -0.5423 -0.3054
  482SOL    HW1 1116   5.183   4.032   1.294 -1.9712 -1.4089  1.8234
  482SOL    HW2 1117   5.079   4.033   1.183 -0.9511  0.1324  0.8606
  482SOL     MW 1118   5.131   4.076   1.239  0.4654 -0.5670  0.1163
  483SOL     OW 1119   0.650   0.043   1.265 -0.4091 -0.5036  0.5535
  483SOL    HW1 1120   0.665   0.058   1.358 -0.8131 -3.0956  1.0549
  483SOL    HW2 1121   0.562   0.077   1.249 -0.4494 -0.3204  1.1651
  483SOL     MW 1122   0.641   0.049   1.275 -0.4660 -0.8120  0.6958
  484SOL     OW 1123   0.934   1.852   4.224  0.2328 -0.3720  0.0838
  484SOL    HW1 1124   0.989   1.776   4.244 -0.1153  0.0794  2.9525
  484SOL    HW2 1125   0.995   1.924   4.212  0.4672 -0.7404 -1.0478
  484SOL     MW 1126   0.949   1.851   4.225  0.2183 -0.3614  0.3066
  485SOL     OW 1127   0.883   0.484   0.983  0.1981 -0.2005 -0.0394
  485SOL    HW1 1128   0.863   0.569   0.944  0.3118 -1.7828 -3.7060
  485SOL    HW2 1129   0.801   0.436   0.979  0.4985 -0.7785  0.6575
  485SOL     MW 1130   0.870   0.489   0.978  0.2511 -0.4770 -0.4196
  486SOL     OW 1131   1.495   0.422   3.205 -0.6104  1.1087 -0.2357
  486SOL    HW1 1132   1.496   0.511   3.242 -0.9634  0.8992  0.2846
  486SOL    HW2 1133   1.403   0.397   3.204 -0.4893  0.6429 -0.1234
  486SOL     MW 1134   1.483   0.430   3.209 -0.6402  1.0222 -0.1547
  487SOL     OW 1135   4.466   0.752   3.359  0.4291  0.1450 -0.6733
  487SOL    HW1 1136   4.426   0.694   3.294 -0.8453 -0.0459  0.2894
  487SOL    HW2 1137   4.512   0.818   3.306 -1.4280  0.5769 -1.7801
  487SOL     MW 1138   4.467   0.753   3.344  0.0286  0.1758 -0.6919
  488SOL     OW 1139   0.936   0.866   3.919 -0.4753  0.2320  0.0633
  488SOL    HW1 1140   0.972   0.824   3.996 -1.0574 -0.5481 -0.0744
  488SOL    HW2 1141   0.996   0.842   3.848 -0.2479  0.4856  0.1684
  488SOL     MW 1142   0.948   0.858   3.920 -0.5207  0.1646  0.0591
  489SOL     OW 1143   0.046   0.151   2.097  0.3846  0.2182 -0.3570
  489SOL    HW1 1144  -0.047   0.175   2.102 -0.2072 -1.7282 -1.4081
  489SOL    HW2 1145   0.079   0.200   2.021 -0.0256  0.1308 -0.5921
  489SOL     MW 1146   0.038   0.161   2.088  0.2563 -0.0422 -0.5217
  490SOL     OW 1147   2.699   0.717   2.495  0.0411 -0.1177  0.2856
  490SOL    HW1 1148   2.624   0.742   2.442  0.2193 -0.0860  0.0438
  490SOL    HW2 1149   2.717   0.626   2.469  0.2405 -0.0423  0.1581
  490SOL     MW 1150   2.692   0.708   2.485  0.0896 -0.1040  0.2382
  491SOL     OW 1151   3.907   1.709   1.350 -0.0272 -0.1024  0.2423
  491SOL    HW1 1152   3.878   1.798   1.366  0.3509 -0.3634  2.5709
  491SOL    HW2 1153   3.897   1.697   1.256  1.0895  2.7997 -0.3000
  491SOL     MW 1154   3.902   1.719   1.340  0.1643  0.2356  0.4710
  492SOL     OW 1155   2.529   3.231   5.452  0.1433  0.2364  0.1148
  492SOL    HW1 1156   2.483   3.222   5.536 -0.1160  2.5078  0.2569
  492SOL    HW2 1157   2.618   3.200   5.469 -0.5316 -1.4562  0.6133
  492SOL     MW 1158   2.534   3.226   5.465  0.0238  0.3107  0.1965
  493SOL     OW 1159   4.811   1.393   2.282 -0.1246 -0.0565  0.0902
  493SOL    HW1 1160   4.855   1.324   2.232  1.3211 -0.0413  1.3198
  493SOL    HW2 1161   4.879   1.459   2.297 -1.5598  1.8205 -1.3340
  493SOL     MW 1162   4.825   1.392   2.277 -0.1230  0.1857  0.0651
  494SOL     OW 1163   4.661   2.633   3.570 -0.5272 -0.6347 -0.2196
  494SOL    HW1 1164   4.752   2.664   3.562 -0.2828 -1.4162 -0.5170
  494SOL    HW2 1165   4.620   2.696   3.629  0.0291  0.1210 -0.6262
  494SOL     MW 1166   4.668   2.645   3.577 -0.4244 -0.6382 -0.3097
  495SOL     OW 1167   5.998   2.923   5.305 -0.1149 -0.0799 -0.4506
  495SOL    HW1 1168   6.030   2.892   5.221 -0.3218 -0.1584 -0.5022
  495SOL    HW2 1169   6.074   2.962   5.347  0.1676 -0.7278 -0.3518
  495SOL     MW 1170   6.012   2.924   5.300 -0.1053 -0.1731 -0.4444
  496SOL     OW 1171   1.860   1.538   1.862  0.4182  0.3264 -0.2058
  496SOL    HW1 1172   1.815   1.510   1.941  0.3597 -0.4113 -0.4962
  496SOL    HW2 1173   1.867   1.633   1.871 -2.8638  0.7200 -1.0035
  496SOL     MW 1174   1.855   1.547   1.873 -0.0094  0.2823 -0.3450
  497SOL     OW 1175   1.664   2.716   0.935 -0.3688  0.5215  0.2142
  497SOL    HW1 1176   1.748   2.734   0.977  0.1355 -0.0164 -0.5314
  497SOL    HW2 1177   1.688   2.685   0.847 -1.2468 -2.0789  0.8503
  497SOL     MW 1178   1.678   2.714   0.929 -0.4166  0.1199  0.2002
  498SOL     OW 1179   0.286   0.966   4.480  0.1043  0.7514  0.4155
  498SOL    HW1 1180   0.281   0.875   4.451 -0.5842 -0.4966  4.2057
  498SOL    HW2 1181   0.377   0.992   4.461  0.2524 -0.6422 -0.8608
  498SOL     MW 1182   0.297   0.958   4.473  0.0351  0.4132  0.7372
  499SOL     OW 1183   5.796   5.944   3.807  0.2591 -0.0375 -0.0786
  499SOL    HW1 1184   5.795   5.882   3.734  0.6650  1.6339 -1.5129
  499SOL    HW2 1185   5.886   5.976   3.811 -0.0226  0.7040  0.4595
  499SOL     MW 1186   5.807   5.940   3.798  0.2747  0.2713 -0.1934
  500SOL     OW 1187   4.414   2.178   0.893  0.2028 -0.0630 -0.2896
  500SOL    HW1 1188   4.417   2.242   0.822  1.6484  0.3347  0.1048
  500SOL    HW2 1189   4.352   2.112   0.863  0.1879  0.5176 -1.5741
  500SOL     MW 1190   4.407   2.178   0.880  0.3858  0.0625 -0.4036
  501SOL     OW 1191   1.273   4.080   4.788 -0.1492  0.5224 -0.4268
  501SOL    HW1 1192   1.315   4.128   4.860  0.5195  0.8930 -1.0482
  501SOL    HW2 1193   1.182   4.109   4.790 -0.2043  0.2932  0.4659
  501SOL     MW 1194   1.267   4.090   4.797 -0.0707  0.5407 -0.3920
  502SOL     OW 1195   1.914   1.559   1.213  0.1596 -0.6681 -0.0461
  502SOL    HW1 1196   1.844   1.530   1.272  1.5644  0.0417  2.0321
  502SOL    HW2 1197   1.872   1.564   1.127 -2.0662 -1.2860  0.9501
  502SOL     MW 1198   1.900   1.556   1.210  0.0545 -0.6562  0.3475
  503SOL     OW 1199   0.370   1.584   4.796  0.4544  0.0695  0.0070
  503SOL    HW1 1200   0.308   1.632   4.850 -0.0635 -2.1756  1.4796
  503SOL    HW2 1201   0.456   1.613   4.827  0.1775  2.2496 -1.1806
  503SOL     MW 1202   0.373   1.594   4.807  0.3527  0.0612  0.0434
  504SOL     OW 1203   1.902   2.561   1.530  0.4738  0.6970 -0.2806
  504SOL    HW1 1204   1.831   2.513   1.574  1.7108  0.0490  1.0193
  504SOL    HW2 1205   1.946   2.608   1.600  3.0179 -1.0447 -0.6414
  504SOL     MW 1206   1.898   2.561   1.544  0.9578  0.3910 -0.1602
  505SOL     OW 1207   5.326   0.734   4.314 -0.2737  0.3925 -0.5884
  505SOL    HW1 1208   5.412   0.697   4.294 -0.8076  0.0574 -2.3598
  505SOL    HW2 1209   5.341   0.828   4.315  0.2022  0.3207 -0.4502
  505SOL     MW 1210   5.339   0.741   4.311 -0.2813  0.3403 -0.7973
  506SOL     OW 1211   4.155   0.218   3.888 -0.3082 -0.0862 -0.5614
  506SOL    HW1 1212   4.233   0.191   3.839 -0.1799 -3.4510  1.3613
  506SOL    HW2 1213   4.106   0.137   3.900 -3.4739  1.7824 -0.5875
  506SOL     MW 1214   4.159   0.204   3.883 -0.6976 -0.2777 -0.3183
  507SOL     OW 1215   4.171   2.910   1.170 -0.4612 -0.4743 -0.4388
  507SOL    HW1 1216   4.253   2.905   1.121  1.2525 -0.2636  2.3052
  507SOL    HW2 1217   4.183   2.986   1.228 -1.9102 -1.4535  1.1713
  507SOL     MW 1218   4.183   2.919   1.171 -0.4277 -0.5727  0.1186
  508SOL     OW 1219   1.707   1.218   3.988  0.3124  0.2551 -0.2867
  508SOL    HW1 1220   1.617   1.185   3.991  0.3289  0.0125 -1.8219
  508SOL    HW2 1221   1.725   1.250   4.076 -0.9272 -0.6404  0.2872
  508SOL     MW 1222   1.698   1.218   3.999  0.1559  0.1094 -0.4098
  509SOL     OW 1223   3.335   2.237   5.185 -0.4764 -0.3911 -0.3321
  509SOL    HW1 1224   3.355   2.327   5.208  0.4400 -0.8791  0.8218
  509SOL    HW2 1225   3.241   2.238   5.163 -0.1443  1.0916 -1.7110
  509SOL     MW 1226   3.325   2.249   5.185 -0.3164 -0.2637 -0.3614
  510SOL     OW 1227   2.542   5.460   2.515  0.1516 -0.2158 -0.1869
  510SOL    HW1 1228   2.466   5.503   2.554  0.2711 -0.9200  0.8457
  510SOL    HW2 1229   2.582   5.527   2.459  0.0876  0.8875  1.0602
  510SOL     MW 1230   2.538   5.474   2.513  0.1590 -0.1645  0.1049
  511SOL     OW 1231   3.592   1.019   2.286  0.1329 -0.3529  0.0033
  511SOL    HW1 1232   3.599   1.115   2.287  1.7253 -0.4470  0.6841
  511SOL    HW2 1233   3.654   0.990   2.354 -0.2634 -1.8699 -0.2608
  511SOL     MW 1234   3.601   1.028   2.295  0.2859 -0.5592  0.0565
  512SOL     OW 1235   4.037   0.282   1.011 -0.9065  0.2201 -0.6276
  512SOL    HW1 1236   4.068   0.237   1.089  0.0773  1.9360  0.0033
  512SOL    HW2 1237   3.971   0.343   1.043 -0.7079  0.7271 -1.1767
  512SOL     MW 1238   4.033   0.284   1.025 -0.7553  0.5047 -0.6173
  513SOL     OW 1239   0.372   1.311   4.945 -0.1517 -0.1836  0.0648
  513SOL    HW1 1240   0.457   1.349   4.966 -0.1547 -0.5315  0.7054
  513SOL    HW2 1241   0.309   1.371   4.984 -0.1582 -0.7991  1.0092
  513SOL     MW 1242   0.375   1.324   4.953 -0.1529 -0.3070  0.2675
  514SOL     OW 1243   5.990   3.355   5.787  0.2000  0.0283  0.6578
  514SOL    HW1 1244   5.999   3.440   5.744  1.3120 -0.1171  0.5896
  514SOL    HW2 1245   5.913   3.316   5.745  1.4281 -0.2328 -1.4323
  514SOL     MW 1246   5.981   3.361   5.776  0.4997 -0.0236  0.3815
  515SOL     OW 1247   1.336   4.012   5.315  0.8493 -0.2172 -0.6397
  515SOL    HW1 1248   1.368   3.924   5.298  2.2631 -0.2529  1.9460
  515SOL    HW2 1249   1.326   4.016   5.410 -0.3621  2.0241 -0.8230
  515SOL     MW 1250   1.339   4.002   5.325  0.8751  0.0644 -0.3319
  516SOL     OW 1251   0.630   3.629   1.933 -0.2733  0.0048  0.1498
  516SOL    HW1 1252   0.569   3.699   1.954 -1.1872 -0.6602 -0.2202
  516SOL    HW2 1253   0.648   3.639   1.840 -0.0923 -0.0089  0.1829
  516SOL     MW 1254   0.625   3.639   1.924 -0.3671 -0.0820  0.1067
  517SOL     OW 1255   2.480   4.005   5.147 -0.4398 -0.2820  0.5444
  517SOL    HW1 1256   2.434   3.954   5.080 -0.5007  0.3723  0.0919
  517SOL    HW2 1257   2.522   3.938   5.202 -1.9422 -0.8939  0.9932
  517SOL     MW 1258   2.479   3.990   5.146 -0.6399 -0.2766  0.5436
  518SOL     OW 1259   3.422   4.018   3.761 -0.4378  0.0642 -0.3362
  518SOL    HW1 1260   3.499   3.960   3.768  0.8704  1.4476 -2.6897
  518SOL    HW2 1261   3.393   4.030   3.851  1.8108 -0.9231  0.5584
  518SOL     MW 1262   3.428   4.012   3.774  0.0174  0.1154 -0.5226
  519SOL     OW 1263   1.640   3.051   3.221  0.3862  0.0392 -0.0735
  519SOL    HW1 1264   1.642   2.967   3.267 -0.4886 -0.2986 -0.6264
  519SOL    HW2 1265   1.657   3.116   3.289 -3.9274 -0.2057  1.4076
  519SOL     MW 1266   1.642   3.048   3.235 -0.2781 -0.0355  0.0451
  520SOL     OW 1267   5.929   1.807   2.711  0.0796  0.2398 -0.1093
  520SOL    HW1 1268   5.954   1.863   2.785 -1.9897  1.1854 -0.1079
  520SOL    HW2 1269   5.893   1.728   2.751 -0.0438  0.2964 -0.1087
  520SOL     MW 1270   5.928   1.804   2.725 -0.2007  0.3679 -0.1090
  521SOL     OW 1271   2.222   5.262   1.189  0.3910 -0.2009 -0.4499
  521SOL    HW1 1272   2.184   5.304   1.112  0.1743 -1.5180 -1.0691
  521SOL    HW2 1273   2.152   5.205   1.222  1.3981 -1.6874 -0.8505
  521SOL     MW 1274   2.208   5.260   1.184  0.4923 -0.5593 -0.5804
  522SOL     OW 1275   5.087   3.295   2.302  0.3673  0.6166  0.5511
  522SOL    HW1 1276   5.157   3.252   2.253 -0.4070  0.8481 -0.7727
  522SOL    HW2 1277   5.065   3.233   2.372  1.2344  0.1302  0.3944
  522SOL     MW 1278   5.093   3.282   2.305  0.3791  0.5839  0.3619
  523SOL     OW 1279   4.973   2.101   4.876  0.5299 -0.3233  0.3262
  523SOL    HW1 1280   4.898   2.126   4.930  0.8369  1.3960 -0.0209
  523SOL    HW2 1281   4.959   2.008   4.857 -0.9184 -0.2957  1.2048
  523SOL     MW 1282   4.962   2.093   4.880  0.3839 -0.0997  0.3943
  524SOL     OW 1283   1.849   4.228   4.779 -0.8125  0.1176  0.5284
  524SOL    HW1 1284   1.812   4.289   4.715  0.6718  1.5221  0.9715
  524SOL    HW2 1285   1.776   4.208   4.838 -1.2357  1.7987  0.6155
  524SOL     MW 1286   1.835   4.233   4.778 -0.6768  0.5126  0.5960
  525SOL     OW 1287   3.411   3.484   3.381 -0.9238 -0.7644 -0.0569
  525SOL    HW1 1288   3.487   3.486   3.438 -1.3169 -0.4571  0.4604
  525SOL    HW2 1289   3.391   3.577   3.364  0.6209 -0.8383 -2.6196
  525SOL     MW 1290   3.418   3.496   3.386 -0.7763 -0.7346 -0.3188
  526SOL     OW 1291   1.577   4.159   0.054  0.2484 -0.0483 -0.0486
  526SOL    HW1 1292   1.502   4.126   0.103 -0.1959  1.5610  0.3563
  526SOL    HW2 1293   1.605   4.084   0.000 -1.1202 -0.8945  0.4006
  526SOL     MW 1294   1.571   4.145   0.053  0.0165  0.0491  0.0607
  527SOL     OW 1295   2.851   3.616   5.050  0.3756  0.1327  0.3186
  527SOL    HW1 1296   2.895   3.598   4.967  1.9663  2.1242  0.6980
  527SOL    HW2 1297   2.877   3.544   5.107 -0.7065 -1.2339 -0.8684
  527SOL     MW 1298   2.860   3.605   5.047  0.4406  0.2127  0.2151
  528SOL     OW 1299   5.179   3.317   3.202 -0.3451  0.0098  0.5684
  528SOL    HW1 1300   5.266   3.350   3.226 -0.0986  0.5665 -0.9777
  528SOL    HW2 1301   5.195   3.261   3.126 -1.5344  1.8028 -1.0731
  528SOL     MW 1302   5.192   3.314   3.195 -0.4659  0.3107  0.1605
  529SOL     OW 1303   2.612   5.647   2.276  0.5359  0.7893 -0.5601
  529SOL    HW1 1304   2.657   5.583   2.220  1.4201 -0.5641  1.6079
  529SOL    HW2 1305   2.528   5.662   2.233  1.6158  0.5824 -2.7823
  529SOL     MW 1306   2.607   5.641   2.263  0.7870  0.5894 -0.5672
  530SOL     OW 1307   1.095   1.442   5.507  0.4637  0.0393 -0.2447
  530SOL    HW1 1308   1.137   1.364   5.544 -2.6017 -0.9981  1.2241
  530SOL    HW2 1309   1.034   1.407   5.442 -1.2250  1.1808  0.7009
  530SOL     MW 1310   1.092   1.427   5.504 -0.1448  0.0527  0.0644
  531SOL     OW 1311   3.134   3.746   4.798  0.0942  0.2867  0.5074
  531SOL    HW1 1312   3.123   3.818   4.860  0.5282  0.6949  0.1164
  531SOL    HW2 1313   3.169   3.788   4.719 -0.2506 -0.2650  0.0677
  531SOL     MW 1314   3.137   3.761   4.796  0.1056  0.2682  0.4010
  532SOL     OW 1315   0.888   0.728   4.297 -0.3956  0.1085 -0.0763
  532SOL    HW1 1316   0.949   0.737   4.223  0.4469  1.9057  0.8171
  532SOL    HW2 1317   0.848   0.642   4.284  1.2360 -0.4710 -1.5043
  532SOL     MW 1318   0.891   0.718   4.286 -0.0789  0.2643 -0.1450
  533SOL     OW 1319   5.616   1.988   3.754  0.0060 -0.3778  0.2668
  533SOL    HW1 1320   5.663   1.974   3.837 -2.6726 -0.6770  1.7680
  533SOL    HW2 1321   5.638   1.910   3.702  2.0616  0.0138  0.4744
  533SOL     MW 1322   5.625   1.976   3.758 -0.0739 -0.3660  0.4854
  534SOL     OW 1323   3.097   2.789   2.572 -0.2852  0.0927 -0.0103
  534SOL    HW1 1324   3.101   2.695   2.556 -3.3652 -0.7294  3.3657
  534SOL    HW2 1325   3.173   2.808   2.628  1.8445  0.1993 -2.8201
  534SOL     MW 1326   3.107   2.780   2.577 -0.4067  0.0014  0.0625
  535SOL     OW 1327   1.298   0.540   3.704 -0.2001  0.2364  0.6976
  535SOL    HW1 1328   1.335   0.476   3.765 -0.9222 -2.1301 -1.2675
  535SOL    HW2 1329   1.271   0.613   3.760  0.1968 -1.3630  3.0732
  535SOL     MW 1330   1.299   0.541   3.719 -0.2418 -0.2713  0.7503
  536SOL     OW 1331   5.332   1.225   5.732  0.0148  0.2823 -0.5359
  536SOL    HW1 1332   5.256   1.271   5.767  0.8506  1.4928 -0.2970
  536SOL    HW2 1333   5.333   1.142   5.780  0.0432  1.1259  0.9625
  536SOL     MW 1334   5.322   1.220   5.743  0.1254  0.5453 -0.3133
  537SOL     OW 1335   4.994   5.282   4.229  0.5811  0.0905  0.2035
  537SOL    HW1 1336   5.052   5.230   4.172  0.3938  0.3642 -0.2412
  537SOL    HW2 1337   5.038   5.281   4.314  0.1843 -1.4619  0.4058
  537SOL     MW 1338   5.007   5.275   4.232  0.5059 -0.0734  0.1721
  538SOL     OW 1339   4.168   5.589   3.293  0.1807  0.3688  0.4814
  538SOL    HW1 1340   4.263   5.583   3.295  0.1575 -0.9975 -1.7458
  538SOL    HW2 1341   4.137   5.505   3.326 -0.2232 -0.3825 -1.7439
  538SOL     MW 1342   4.176   5.578   3.298  0.1254  0.0978 -0.0887
  539SOL     OW 1343   4.053   1.447   3.747  0.0267 -0.8006  0.2833
  539SOL    HW1 1344   4.129   1.486   3.789  0.5494 -2.1994  0.6600
  539SOL    HW2 1345   4.018   1.517   3.692  0.0267  0.6950  2.1069
  539SOL     MW 1346   4.058   1.461   3.746  0.0935 -0.7882  0.5653
  540SOL     OW 1347   5.810   4.428   1.076 -0.8502 -0.2286  0.1204
  540SOL    HW1 1348   5.831   4.513   1.116 -1.6153  1.2489 -2.5345
  540SOL    HW2 1349   5.714   4.427   1.069 -0.7219 -0.3176 -1.9276
  540SOL     MW 1350   5.800   4.439   1.080 -0.9317 -0.0515 -0.4817
  541SOL     OW 1351   2.523   4.803   5.242 -0.0361 -0.0897  0.4493
  541SOL    HW1 1352   2.557   4.832   5.157  1.6655 -0.0658  1.1105
  541SOL    HW2 1353   2.535   4.708   5.242 -1.2131 -0.2451  0.1688
  541SOL     MW 1354   2.529   4.795   5.231  0.0312 -0.1068  0.4978
  542SOL     OW 1355   2.369   3.028   1.870  0.4001  0.1365  0.1207
  542SOL    HW1 1356   2.334   3.076   1.945 -0.8942 -0.0864 -0.3417
  542SOL    HW2 1357   2.355   3.086   1.795  0.9361  0.0012 -0.0923
  542SOL     MW 1358   2.363   3.042   1.870  0.3028  0.0906  0.0343
  543SOL     OW 1359   5.843   5.306   0.091 -0.2169 -0.5404 -0.5460
  543SOL    HW1 1360   5.879   5.314   0.179  0.7407  2.6883 -1.1797
  543SOL    HW2 1361   5.843   5.212   0.073  1.6453 -1.0650  2.0397
  543SOL     MW 1362   5.847   5.295   0.100  0.1440 -0.1936 -0.2961
  544SOL     OW 1363   0.911   4.645   0.523 -0.3384  0.9788  0.0763
  544SOL    HW1 1364   0.990   4.653   0.470  0.5294 -0.9609  1.0392
  544SOL    HW2 1365   0.892   4.735   0.550  1.2398  1.5391 -0.5870
  544SOL     MW 1366   0.919   4.658   0.519 -0.0253  0.8025  0.1147
  545SOL     OW 1367   1.394   2.984   4.180  0.3360 -0.6705 -0.1023
  545SOL    HW1 1368   1.353   3.061   4.140 -1.5570 -1.2208  0.6924
  545SOL    HW2 1369   1.390   2.917   4.111  2.1217 -0.0442 -0.8467
  545SOL     MW 1370   1.388   2.985   4.166  0.3222 -0.6609 -0.0958
  546SOL     OW 1371   5.119   5.217   2.903  0.0520  0.5554  0.4826
  546SOL    HW1 1372   5.144   5.283   2.968 -0.8368  0.6933  0.6856
  546SOL    HW2 1373   5.202   5.178   2.876  0.6474  2.1801 -0.1034
  546SOL     MW 1374   5.133   5.220   2.908  0.0143  0.7811  0.4337
  547SOL     OW 1375   2.660   3.861   1.182 -0.0712  0.1563 -0.0646
  547SOL    HW1 1376   2.662   3.952   1.152 -1.5580  0.5578  1.0192
  547SOL    HW2 1377   2.726   3.857   1.251 -0.1041  0.4554 -0.0144
  547SOL     MW 1378   2.669   3.872   1.187 -0.2656  0.2458  0.0807
  548SOL     OW 1379   0.456   4.304   3.706  0.3359 -0.1167  0.2139
  548SOL    HW1 1380   0.423   4.361   3.636  0.8132 -0.1313 -0.0254
  548SOL    HW2 1381   0.428   4.216   3.681 -1.1669  0.1180  1.0370
  548SOL     MW 1382   0.448   4.300   3.694  0.2046 -0.0887  0.2885
  549SOL     OW 1383   0.223   4.343   4.002  0.3879 -0.2612  0.0469
  549SOL    HW1 1384   0.272   4.424   3.988 -0.1538  0.2636  1.0431
  549SOL    HW2 1385   0.133   4.366   3.979  0.3886 -0.8467 -0.5393
  549SOL     MW 1386   0.218   4.357   3.998  0.3187 -0.2689  0.0994
  550SOL     OW 1387   1.024   4.268   3.489  0.3931 -0.0217 -0.0035
  550SOL    HW1 1388   1.087   4.266   3.561 -0.8295  0.7337  1.1186
  550SOL    HW2 1389   1.070   4.311   3.418  1.7172 -1.0334  0.2227
  550SOL     MW 1390   1.038   4.273   3.489  0.4061 -0.0548  0.1690
  551SOL     OW 1391   2.726   4.635   1.590 -0.1462 -0.4773 -0.2486
  551SOL    HW1 1392   2.752   4.631   1.498  1.1063 -2.3001  0.1768
  551SOL    HW2 1393   2.635   4.607   1.590 -0.0108 -0.9329 -0.8804
  551SOL     MW 1394   2.718   4.631   1.578  0.0315 -0.7687 -0.2749
  552SOL     OW 1395   5.582   3.465   0.398 -0.0129 -0.0809 -0.9507
  552SOL    HW1 1396   5.540   3.539   0.441  1.0273  0.6529 -1.1674
  552SOL    HW2 1397   5.561   3.389   0.452  2.0083  0.9417  1.3801
  552SOL     MW 1398   5.574   3.465   0.410  0.3786  0.1440 -0.6800
  553SOL     OW 1399   2.733   1.498   1.847  0.2010  0.4951  0.3854
  553SOL    HW1 1400   2.677   1.460   1.915 -1.8828 -1.1751 -2.1303
  553SOL    HW2 1401   2.815   1.449   1.854 -0.2220 -0.1034  1.2860
  553SOL     MW 1402   2.736   1.487   1.856 -0.1197  0.2048  0.1787
  554SOL     OW 1403   4.870   3.210   5.430  0.1151 -0.0002 -0.8147
  554SOL    HW1 1404   4.873   3.134   5.372  1.1075  1.2057 -2.3736
  554SOL    HW2 1405   4.827   3.279   5.378  0.2600  0.8589  0.1711
  554SOL     MW 1406   4.865   3.209   5.416  0.2608  0.2642 -0.8874
  555SOL     OW 1407   3.552   0.165   2.935 -0.2746 -0.5762  0.0586
  555SOL    HW1 1408   3.555   0.072   2.955  0.3761 -0.6994 -0.5902
  555SOL    HW2 1409   3.460   0.182   2.912  0.0506 -1.5429 -2.0338
  555SOL     MW 1410   3.541   0.156   2.934 -0.1497 -0.7157 -0.2923
  556SOL     OW 1411   2.004   1.811   1.306 -0.3382 -0.0927  0.2990
  556SOL    HW1 1412   2.029   1.805   1.398  0.0738 -2.6694  0.0580
  556SOL    HW2 1413   1.921   1.763   1.300  0.5770 -1.5728 -0.9793
  556SOL     MW 1414   1.997   1.804   1.317 -0.1684 -0.6121  0.1045
  557SOL     OW 1415   2.671   5.222   1.613  0.3814 -0.0976 -0.3234
  557SOL    HW1 1416   2.693   5.309   1.647 -0.7549  0.1081 -0.1053
  557SOL    HW2 1417   2.727   5.163   1.662  2.1610  0.6157 -1.4302
  557SOL     MW 1418   2.681   5.226   1.623  0.4637  0.0200 -0.4371
  558SOL     OW 1419   2.664   2.290   2.751  0.2645  0.4973 -0.0970
  558SOL    HW1 1420   2.636   2.352   2.684  1.3054  1.5592  0.4432
  558SOL    HW2 1421   2.746   2.326   2.784  0.6213 -0.9060  0.5725
  558SOL     MW 1422   2.671   2.302   2.747  0.4435  0.4535  0.0579
  559SOL     OW 1423   2.352   4.605   1.969 -0.2159 -0.3407 -0.6440
  559SOL    HW1 1424   2.290   4.602   2.042  1.2436  0.9202  0.6567
  559SOL    HW2 1425   2.311   4.663   1.905 -0.6823 -0.0336 -0.0735
  559SOL     MW 1426   2.338   4.612   1.970 -0.0887 -0.1402 -0.4045
  560SOL     OW 1427   0.233   2.533   2.157  0.3622  0.3259  0.9858
  560SOL    HW1 1428   0.286   2.602   2.197  1.6639 -0.1061  0.0264
  560SOL    HW2 1429   0.254   2.455   2.208  3.6603 -0.6994 -1.7947
  560SOL     MW 1430   0.243   2.532   2.169  0.9511  0.1392  0.5071
  561SOL     OW 1431   4.989   0.073   2.719 -0.3358  0.0360  0.1900
  561SOL    HW1 1432   5.024   0.128   2.650  0.8379 -1.4233 -0.3976
  561SOL    HW2 1433   4.900   0.051   2.690  0.0295 -0.2876 -0.7096
  561SOL     MW 1434   4.982   0.077   2.706 -0.1392 -0.1922 -0.0002
  562SOL     OW 1435   4.901   1.796   0.711  0.3308 -0.0401 -0.0906
  562SOL    HW1 1436   4.992   1.819   0.690  1.5400 -3.2618  1.2857
  562SOL    HW2 1437   4.870   1.748   0.634  0.0990  0.2522 -0.1803
  562SOL     MW 1438   4.909   1.792   0.698  0.4554 -0.4151  0.0741
  563SOL     OW 1439   1.960   0.334   0.275 -0.0942 -0.7080 -0.1055
  563SOL    HW1 1440   2.018   0.406   0.250 -1.4226  0.5915  0.5125
  563SOL    HW2 1441   2.020   0.261   0.293  1.2647  0.2183 -0.7398
  563SOL     MW 1442   1.975   0.334   0.274 -0.0904 -0.4231 -0.1076
  564SOL     OW 1443   4.729   0.327   4.445  0.3016  0.0555 -0.0141
  564SOL    HW1 1444   4.798   0.325   4.511  0.2199 -0.1605  0.0667
  564SOL    HW2 1445   4.734   0.415   4.407  0.4609  0.1216  0.1594
  564SOL     MW 1446   4.738   0.338   4.448  0.3114  0.0363  0.0186
  565SOL     OW 1447   2.189   2.405   2.342 -0.2638 -0.4231 -0.1137
  565SOL    HW1 1448   2.218   2.473   2.282 -0.8879 -0.3708 -0.3615
  565SOL    HW2 1449   2.249   2.332   2.326 -0.1185 -0.2318 -0.4469
  565SOL     MW 1450   2.201   2.404   2.332 -0.3252 -0.3920 -0.1881
  566SOL     OW 1451   2.493   2.457   3.135  0.3929  0.5389 -0.2048
  566SOL    HW1 1452   2.426   2.389   3.134  0.6510  0.3014 -1.7246
  566SOL    HW2 1453   2.573   2.412   3.108  0.9560  1.0414  0.6044
  566SOL     MW 1454   2.495   2.443   3.132  0.4978  0.5729 -0.2956
  567SOL     OW 1455   0.503   0.201   2.167 -0.2604  0.3014  0.2080
  567SOL    HW1 1456   0.501   0.190   2.262  2.1008  0.9776  0.3789
  567SOL    HW2 1457   0.466   0.120   2.132 -0.6490 -0.1780  1.6995
  567SOL     MW 1458   0.498   0.189   2.175 -0.0079  0.3266  0.4208
  568SOL     OW 1459   5.323   5.617   2.547  0.1608  0.4498 -0.0548
  568SOL    HW1 1460   5.324   5.712   2.551  3.9387  0.4105  2.0877
  568SOL    HW2 1461   5.250   5.591   2.605 -2.1272  2.0055 -2.1650
  568SOL     MW 1462   5.313   5.626   2.555  0.3519  0.6433 -0.0508
  569SOL     OW 1463   4.249   4.553   1.954  0.3074  0.0923  0.2414
  569SOL    HW1 1464   4.246   4.647   1.973 -1.1077  0.3440 -1.1676
  569SOL    HW2 1465   4.161   4.531   1.927  1.0364 -1.3116 -1.0547
  569SOL     MW 1466   4.238   4.562   1.953  0.2198 -0.0558 -0.1049
  570SOL     OW 1467   0.035   3.191   2.695  0.4227 -0.5653  0.5297
  570SOL    HW1 1468  -0.039   3.147   2.653 -0.7060  1.4893  0.3337
  570SOL    HW2 1469   0.110   3.135   2.675 -0.5138 -0.9324 -2.0970
  570SOL     MW 1470   0.035   3.178   2.687  0.1588 -0.3495  0.1686
  571SOL     OW 1471   0.137   4.491   2.046 -0.0051 -0.0096 -0.2904
  571SOL    HW1 1472   0.104   4.414   2.093  0.6707  0.0641  0.3095
  571SOL    HW2 1473   0.061   4.548   2.037 -0.3803 -0.4967 -0.2324
  571SOL     MW 1474   0.123   4.488   2.051  0.0334 -0.0625 -0.2062
  572SOL     OW 1475   5.039   3.724   2.360  0.1219 -0.3959  0.3730
  572SOL    HW1 1476   5.126   3.695   2.331  0.4532  1.6842 -0.7917
  572SOL    HW2 1477   4.988   3.733   2.280 -0.0225  1.9849  0.6876
  572SOL     MW 1478   5.044   3.721   2.346  0.1459  0.1752  0.2642
  573SOL     OW 1479   4.717   1.569   3.298 -0.2197 -0.1815  0.3558
  573SOL    HW1 1480   4.790   1.574   3.237 -0.8234 -0.9454 -0.4510
  573SOL    HW2 1481   4.686   1.659   3.306  0.6505  0.1076  0.5146
  573SOL     MW 1482   4.722   1.581   3.292 -0.1860 -0.2422  0.2728
  574SOL     OW 1483   5.228   0.483   5.058 -0.4714  0.6998 -0.2307
  574SOL    HW1 1484   5.160   0.551   5.051 -0.5344  0.7247  0.5179
  574SOL    HW2 1485   5.184   0.411   5.104 -0.3240  0.2615 -0.7808
  574SOL     MW 1486   5.213   0.482   5.063 -0.4606  0.6469 -0.2055
  575SOL     OW 1487   2.354   2.176   2.822  0.3890  0.3251  0.4224
  575SOL    HW1 1488   2.365   2.262   2.781 -2.2273  0.2827 -0.4809
  575SOL    HW2 1489   2.334   2.196   2.913  0.7924  0.6523  0.4393
  575SOL     MW 1490   2.353   2.190   2.828  0.1056  0.3614  0.3090
  576SOL     OW 1491   0.972   5.684   2.570 -0.3146 -0.4949 -0.2329
  576SOL    HW1 1492   0.955   5.639   2.488  0.0574 -1.3321  0.1474
  576SOL    HW2 1493   0.952   5.620   2.638 -1.3556  0.4293  0.3587
  576SOL     MW 1494   0.967   5.670   2.568 -0.4002 -0.4840 -0.1087
  577SOL     OW 1495   2.104   5.896   0.067 -0.0724 -0.0867  0.6320
  577SOL    HW1 1496   2.027   5.862   0.111 -0.6111  0.2282 -0.0454
  577SOL    HW2 1497   2.072   5.923  -0.019  0.8513 -0.2139  0.2433
  577SOL     MW 1498   2.090   5.895   0.061 -0.0231 -0.0625  0.4956
  578SOL     OW 1499   3.806   4.330   3.790  0.2106  0.1251  0.3577
  578SOL    HW1 1500   3.783   4.406   3.843  1.2879  1.2414 -0.7426
  578SOL    HW2 1501   3.867   4.364   3.724  0.1656 -1.5523 -0.5798
  578SOL     MW 1502   3.811   4.344   3.789  0.3426  0.0529  0.0970
  579SOL     OW 1503   3.285   3.249   3.480  0.6468  0.4307  0.2764
  579SOL    HW1 1504   3.321   3.330   3.443  1.1207  0.5721  1.0260
  579SOL    HW2 1505   3.357   3.187   3.478 -0.1151 -0.4131 -1.5925
  579SOL     MW 1506   3.299   3.252   3.475  0.6096  0.3409  0.1328
  580SOL     OW 1507   5.504   1.812   2.920 -0.2967 -0.5359  0.0696
  580SOL    HW1 1508   5.436   1.771   2.974  0.6283 -2.1551  0.0345
  580SOL    HW2 1509   5.481   1.788   2.830  0.1956 -0.8976  0.0393
  580SOL     MW 1510   5.492   1.804   2.915 -0.1144 -0.7895  0.0613
  581SOL     OW 1511   0.418   5.347   2.268  0.4902 -0.1028 -0.2525
  581SOL    HW1 1512   0.447   5.262   2.234  1.0135  0.3566 -0.9484
  581SOL    HW2 1513   0.444   5.346   2.360  0.3792 -0.7506 -0.2259
  581SOL     MW 1514   0.425   5.336   2.275  0.5430 -0.1268 -0.3381
  582SOL     OW 1515   1.005   2.750   3.123  0.5113  0.0740  0.1946
  582SOL    HW1 1516   1.033   2.815   3.059  1.5291 -0.5624 -0.0241
  582SOL    HW2 1517   0.971   2.677   3.070  1.5322 -0.5330  0.3649
  582SOL     MW 1518   1.004   2.749   3.108  0.7722 -0.0854  0.1884
  583SOL     OW 1519   0.947   5.152   3.382 -0.2793 -0.4001 -0.2444
  583SOL    HW1 1520   0.956   5.210   3.457 -0.3468 -1.9863  1.0026
  583SOL    HW2 1521   1.019   5.176   3.324 -0.2408  0.8431  0.3067
  583SOL     MW 1522   0.957   5.163   3.384 -0.2829 -0.4444 -0.0143
  584SOL     OW 1523   2.549   2.867   2.004 -0.7753 -0.9779  0.2553
  584SOL    HW1 1524   2.526   2.774   2.001 -1.9005 -0.6939 -0.3444
  584SOL    HW2 1525   2.474   2.911   1.965  0.6975  0.0166 -1.5481
  584SOL     MW 1526   2.536   2.861   1.999 -0.7308 -0.8144 -0.0523
  585SOL     OW 1527   0.104   3.512   1.119  0.1398 -0.1452  0.1505
  585SOL    HW1 1528   0.131   3.498   1.210  0.9039 -0.4592 -0.1254
  585SOL    HW2 1529   0.012   3.484   1.118 -0.3004  1.2030  1.1449
  585SOL     MW 1530   0.095   3.506   1.131  0.1813 -0.0126  0.2424
  586SOL     OW 1531   2.154   1.277   4.049 -0.3885  0.2576  0.0139
  586SOL    HW1 1532   2.221   1.239   3.992 -0.4279  0.1904  0.0122
  586SOL    HW2 1533   2.142   1.212   4.119 -1.4531 -0.3794 -0.7364
  586SOL     MW 1534   2.161   1.264   4.051 -0.5298  0.1675 -0.0825
  587SOL     OW 1535   1.780   1.851   4.914 -0.6054  0.1214  0.2745
  587SOL    HW1 1536   1.802   1.885   5.001 -0.1351 -0.1309  0.2581
  587SOL    HW2 1537   1.687   1.828   4.920 -0.1849 -1.4267  1.2235
  587SOL     MW 1538   1.771   1.853   4.926 -0.4914 -0.1091  0.3939
  588SOL     OW 1539   4.432   1.125   2.878 -0.0730 -0.1578  0.0091
  588SOL    HW1 1540   4.395   1.189   2.817  3.1186  1.6388 -0.1832
  588SOL    HW2 1541   4.360   1.103   2.937 -1.5765  2.8129 -0.6138
  588SOL     MW 1542   4.418   1.130   2.878  0.1431  0.4524 -0.0951
  589SOL     OW 1543   5.394   1.847   4.916 -0.2484  0.3582  0.2464
  589SOL    HW1 1544   5.475   1.796   4.925 -0.7967 -0.5082  0.3681
  589SOL    HW2 1545   5.398   1.883   4.827  0.1997  0.2065  0.2004
  589SOL     MW 1546   5.405   1.845   4.906 -0.2608  0.2278  0.2565
  590SOL     OW 1547   1.452   2.093   0.465 -0.2008 -0.4666  0.3437
  590SOL    HW1 1548   1.448   2.186   0.445  0.4962 -0.0774  1.9119
  590SOL    HW2 1549   1.515   2.057   0.402 -0.9856 -0.0162 -0.7095
  590SOL     MW 1550   1.459   2.100   0.454 -0.2121 -0.3593  0.4096
  591SOL     OW 1551   3.134   1.258   4.582  0.0627  0.0685 -0.4386
  591SOL    HW1 1552   3.226   1.276   4.600 -0.4347  3.9293 -1.3045
  591SOL    HW2 1553   3.130   1.246   4.487 -0.1223 -1.4830 -0.2384
  591SOL     MW 1554   3.145   1.259   4.572 -0.0248  0.3641 -0.5236
  592SOL     OW 1555   5.732   5.651   5.681  0.4318  0.0038 -0.1137
  592SOL    HW1 1556   5.686   5.598   5.746  2.5370  0.3590  1.7035
  592SOL    HW2 1557   5.717   5.742   5.708  1.0845  0.1674 -0.2827
  592SOL     MW 1558   5.724   5.656   5.693  0.7849  0.0701  0.0973
  593SOL     OW 1559   2.348   5.739   4.357 -0.4529 -0.4013  0.3854
  593SOL    HW1 1560   2.384   5.741   4.446 -0.8295  0.7274  0.5236
  593SOL    HW2 1561   2.408   5.793   4.306 -2.0439  1.6934  0.6649
  593SOL     MW 1562   2.360   5.746   4.362 -0.7045  0.0110  0.4392
  594SOL     OW 1563   3.322   2.598   3.755 -0.0142  0.0617  0.4172
  594SOL    HW1 1564   3.364   2.587   3.670  1.7958  0.5020  1.2269
  594SOL    HW2 1565   3.304   2.509   3.785  0.0320 -0.1221 -0.0972
  594SOL     MW 1566   3.325   2.585   3.748  0.2234  0.0947  0.4549
  595SOL     OW 1567   4.649   0.252   4.175 -0.2021 -0.5291 -0.5063
  595SOL    HW1 1568   4.582   0.186   4.157  1.0338 -2.2450  1.0089
  595SOL    HW2 1569   4.687   0.226   4.259 -1.3073  3.4833  1.3913
  595SOL     MW 1570   4.646   0.240   4.184 -0.1855 -0.2351 -0.0696
  596SOL     OW 1571   0.036   2.919   3.845 -0.6038 -0.0429 -0.0765
  596SOL    HW1 1572   0.063   3.002   3.804 -0.8906  0.7815  1.3627
  596SOL    HW2 1573  -0.042   2.893   3.797 -0.2605  0.2786 -0.8303
  596SOL     MW 1574   0.030   2.927   3.833 -0.5966  0.1040  0.0117
  597SOL     OW 1575   4.705   0.128   1.106 -0.0997 -0.0826 -0.4075
  597SOL    HW1 1576   4.688   0.110   1.014 -0.6422 -0.8037 -0.1720
  597SOL    HW2 1577   4.630   0.091   1.152 -0.2255  0.9775  0.2622
  597SOL     MW 1578   4.693   0.121   1.100 -0.1850 -0.0392 -0.2916
  598SOL     OW 1579   0.198   2.706   3.757 -0.0393 -0.6029 -0.0719
  598SOL    HW1 1580   0.164   2.688   3.845 -1.0549  0.2833 -0.2713
  598SOL    HW2 1581   0.187   2.800   3.746  2.2314 -0.3374 -0.2677
  598SOL     MW 1582   0.192   2.716   3.767  0.1213 -0.4556 -0.1223
  599SOL     OW 1583   0.246   5.305   3.773 -0.3032  0.0526 -0.2707
  599SOL    HW1 1584   0.287   5.345   3.697 -0.6913  1.0314  0.0345
  599SOL    HW2 1585   0.318   5.286   3.832 -0.2062  1.0773 -0.0582
  599SOL     MW 1586   0.260   5.308   3.771 -0.3404  0.3095 -0.2046
  600SOL     OW 1587   4.319   5.865   5.766 -0.2308  0.3019 -0.0909
  600SOL    HW1 1588   4.349   5.777   5.741 -0.8056  0.4468 -1.3693
  600SOL    HW2 1589   4.228   5.868   5.736 -0.9867  0.4954  2.1317
  600SOL     MW 1590   4.311   5.854   5.759 -0.4010  0.3452  0.0300
  601SOL     OW 1591   0.982   0.568   4.556  0.1902  0.3245  0.8383
  601SOL    HW1 1592   0.966   0.629   4.627  1.5909  0.3251  1.1752
  601SOL    HW2 1593   0.985   0.622   4.477  2.4014  0.8611  1.2489
  601SOL     MW 1594   0.980   0.582   4.555  0.6526  0.3933  0.9336
  602SOL     OW 1595   2.184   5.484   3.439 -0.4068  0.1353 -0.1236
  602SOL    HW1 1596   2.150   5.399   3.412  0.7001 -0.7335  1.1704
  602SOL    HW2 1597   2.217   5.523   3.358 -2.4084  0.0431 -0.9962
  602SOL     MW 1598   2.184   5.478   3.425 -0.5212  0.0124 -0.0699
  603SOL     OW 1599   5.600   3.091   4.056  0.4630  0.0006  0.2867
  603SOL    HW1 1600   5.604   3.135   4.141 -0.0884 -0.1589  0.3993
  603SOL    HW2 1601   5.649   3.148   3.997  1.6537 -0.3604  0.9134
  603SOL     MW 1602   5.607   3.104   4.060  0.5450 -0.0660  0.3815
  604SOL     OW 1603   3.141   2.523   2.571 -0.3031 -0.1311 -0.5405
  604SOL    HW1 1604   3.232   2.510   2.598 -0.1207  0.0332 -1.0735
  604SOL    HW2 1605   3.107   2.434   2.559 -0.4795 -0.2147  0.5284
  604SOL     MW 1606   3.148   2.510   2.573 -0.3026 -0.1209 -0.4718
  605SOL     OW 1607   1.742   1.197   0.166  0.2566 -0.1894  0.6443
  605SOL    HW1 1608   1.826   1.187   0.212 -0.0610  0.1132  1.2923
  605SOL    HW2 1609   1.687   1.127   0.202  0.0833 -0.1064  0.5388
  605SOL     MW 1610   1.746   1.186   0.176  0.1937 -0.1400  0.7138
  606SOL     OW 1611   2.492   0.926   3.522  0.0446 -0.8582 -0.2674
  606SOL    HW1 1612   2.508   0.846   3.571  1.5228  0.6643  1.8238
  606SOL    HW2 1613   2.578   0.966   3.512 -0.8816  1.4489  0.4764
  606SOL     MW 1614   2.505   0.921   3.527  0.1154 -0.3680  0.0954
  607SOL     OW 1615   4.711   1.283   3.269 -0.3949  0.0441  0.2302
  607SOL    HW1 1616   4.719   1.375   3.296 -0.7814 -0.3925  1.9070
  607SOL    HW2 1617   4.672   1.287   3.182 -2.8378  1.3998  1.3177
  607SOL     MW 1618   4.707   1.295   3.261 -0.7567  0.1616  0.5839
  608SOL     OW 1619   3.959   1.897   1.796  0.7547 -0.1045  0.2071
  608SOL    HW1 1620   3.892   1.948   1.750  2.5153  1.2188 -0.9401
  608SOL    HW2 1621   3.917   1.813   1.813 -0.8204  0.2956 -1.5157
  608SOL     MW 1622   3.945   1.893   1.792  0.7784  0.1161 -0.1602
  609SOL     OW 1623   2.833   3.974   3.158  0.1425 -0.5580 -0.3848
  609SOL    HW1 1624   2.928   3.971   3.164  0.2386 -1.6501 -1.9316
  609SOL    HW2 1625   2.813   3.934   3.073 -1.7685 -1.6298  0.5199
  609SOL     MW 1626   2.842   3.969   3.148 -0.0896 -0.8349 -0.4671
  610SOL     OW 1627   0.465   0.371   3.829 -0.1108  0.2881  0.0804
  610SOL    HW1 1628   0.390   0.399   3.882 -2.0152 -3.3000 -0.5166
  610SOL    HW2 1629   0.470   0.434   3.758 -2.8366  0.3582 -0.0922
  610SOL     MW 1630   0.456   0.382   3.827 -0.7035 -0.1622 -0.0184
  611SOL     OW 1631   2.472   4.573   0.884  0.1492 -0.4492  0.5719
  611SOL    HW1 1632   2.536   4.582   0.813 -1.0058 -1.4489 -0.6456
  611SOL    HW2 1633   2.490   4.486   0.921  0.1378 -0.3237  0.8698
  611SOL     MW 1634   2.482   4.563   0.880  0.0000 -0.5608  0.4542
  612SOL     OW 1635   4.006   1.011   3.852  0.1767  0.5564 -0.2957
  612SOL    HW1 1636   3.960   1.043   3.774 -3.1261  0.8801  1.7194
  612SOL    HW2 1637   3.945   0.949   3.892  1.4051  1.1844  2.6264
  612SOL     MW 1638   3.993   1.007   3.847 -0.0887  0.6782  0.3364
  613SOL     OW 1639   1.756   3.538   1.322 -0.3950 -0.2541  0.1423
  613SOL    HW1 1640   1.758   3.523   1.228  1.8491  0.5067  0.0449
  613SOL    HW2 1641   1.728   3.629   1.331  0.6957  0.0784  0.1619
  613SOL     MW 1642   1.753   3.548   1.311  0.0319 -0.1140  0.1323
  614SOL     OW 1643   4.660   0.284   1.633  0.0721 -0.1601  0.2187
  614SOL    HW1 1644   4.663   0.189   1.646 -2.6476 -0.7041 -2.5699
  614SOL    HW2 1645   4.617   0.296   1.549  2.3872  3.5392 -0.5710
  614SOL     MW 1646   4.655   0.273   1.624  0.0205  0.2438 -0.2393
  615SOL     OW 1647   0.776   2.415   0.386 -0.0620  0.7215 -0.2040
  615SOL    HW1 1648   0.802   2.502   0.353 -1.1096  1.1255  0.0165
  615SOL    HW2 1649   0.742   2.370   0.309 -0.4488  0.8670 -0.1182
  615SOL     MW 1650   0.775   2.421   0.372 -0.2456  0.7918 -0.1648
  616SOL     OW 1651   1.284   5.552   2.643  0.2599 -0.1270 -0.0874
  616SOL    HW1 1652   1.300   5.574   2.735 -1.0793 -0.7217  0.2983
  616SOL    HW2 1653   1.260   5.636   2.603  1.4456  0.2433 -0.0352
  616SOL     MW 1654   1.283   5.566   2.650  0.2403 -0.1554 -0.0315
  617SOL     OW 1655   5.613   1.940   4.435  0.3038 -1.1629 -0.0251
  617SOL    HW1 1656   5.540   1.932   4.497  0.9734 -1.4546  0.7415
  617SOL    HW2 1657   5.608   2.030   4.404 -0.9731 -1.4643 -0.7233
  617SOL     MW 1658   5.603   1.950   4.439  0.2260 -1.2389 -0.0162
  618SOL     OW 1659   3.198   3.249   2.775  0.1693  0.1638 -1.0118
  618SOL    HW1 1660   3.261   3.265   2.705  1.6469 -0.3957  0.1641
  618SOL    HW2 1661   3.222   3.164   2.811  0.7303  1.3474  1.5012
  618SOL     MW 1662   3.209   3.240   2.771  0.4301  0.2439 -0.5398
  619SOL     OW 1663   4.095   2.464   1.950  0.4677  0.2004  0.6084
  619SOL    HW1 1664   4.006   2.445   1.922  1.4606 -0.4082 -2.2572
  619SOL    HW2 1665   4.119   2.544   1.904  1.3575  0.4619  1.4972
  619SOL     MW 1666   4.087   2.472   1.941  0.7086  0.1559  0.3554
  620SOL     OW 1667   3.842   5.071   3.925 -0.5099 -0.4011 -0.7795
  620SOL    HW1 1668   3.861   5.094   3.835 -0.0933 -0.8530 -0.8113
  620SOL    HW2 1669   3.922   5.092   3.973 -0.9001  0.3037 -0.4261
  620SOL     MW 1670   3.855   5.076   3.920 -0.5064 -0.3691 -0.7386
  621SOL     OW 1671   3.475   1.643   3.415 -0.1553 -0.2575  0.3799
  621SOL    HW1 1672   3.420   1.645   3.337  1.1422 -0.1012 -0.5618
  621SOL    HW2 1673   3.452   1.722   3.463  0.1177  0.4459 -0.6235
  621SOL     MW 1674   3.465   1.653   3.411  0.0458 -0.1476  0.1309
  622SOL     OW 1675   0.478   1.963   2.387 -0.2244  0.7857 -0.1893
  622SOL    HW1 1676   0.496   2.015   2.466  1.1257  1.9240 -1.2342
  622SOL    HW2 1677   0.384   1.973   2.373 -0.3508  1.1443  0.8691
  622SOL     MW 1678   0.468   1.971   2.396 -0.0678  0.9773 -0.1874
  623SOL     OW 1679   4.537   2.691   1.329  0.0890  0.0387  0.1794
  623SOL    HW1 1680   4.442   2.689   1.315 -0.5455 -0.6240  4.0797
  623SOL    HW2 1681   4.565   2.775   1.292 -2.2112  0.8164  0.1362
  623SOL     MW 1682   4.529   2.701   1.322 -0.2866  0.0532  0.6732
  624SOL     OW 1683   0.959   1.296   5.335 -0.4761 -0.3335 -0.7110
  624SOL    HW1 1684   0.872   1.321   5.304 -0.5424  1.8522  1.0905
  624SOL    HW2 1685   0.947   1.211   5.376 -1.6709 -0.2433 -0.8546
  624SOL     MW 1686   0.947   1.288   5.336 -0.6375 -0.0422 -0.4988
  625SOL     OW 1687   2.262   5.276   2.842  0.5436 -0.2716  0.4007
  625SOL    HW1 1688   2.291   5.344   2.903  0.8953 -0.1648  0.1149
  625SOL    HW2 1689   2.336   5.214   2.839  0.2352 -0.6517  0.6440
  625SOL     MW 1690   2.276   5.277   2.850  0.5493 -0.3066  0.3953
  626SOL     OW 1691   0.118   1.652   4.611  0.2121  0.4143 -0.7204
  626SOL    HW1 1692   0.062   1.711   4.562  0.4481  0.7757 -0.5619
  626SOL    HW2 1693   0.172   1.710   4.665 -0.2988  0.0128  0.2344
  626SOL     MW 1694   0.118   1.667   4.612  0.1769  0.4092 -0.5774
  627SOL     OW 1695   5.253   1.824   1.397  0.4469  0.2215 -0.2274
  627SOL    HW1 1696   5.236   1.785   1.311 -2.2487  0.5115  0.1232
  627SOL    HW2 1697   5.286   1.753   1.451  2.0064  0.0006 -1.4388
  627SOL     MW 1698   5.255   1.810   1.393  0.3018  0.2304 -0.3376
  628SOL     OW 1699   2.827   4.234   2.581 -0.7551 -0.1468 -0.6828
  628SOL    HW1 1700   2.868   4.151   2.557  3.1005  0.7784  2.1616
  628SOL    HW2 1701   2.787   4.216   2.667 -1.5969  0.4380 -0.9501
  628SOL     MW 1702   2.827   4.221   2.589 -0.3693  0.0463 -0.3526
  629SOL     OW 1703   2.777   3.590   0.309  0.0695 -0.2800  0.0654
  629SOL    HW1 1704   2.747   3.680   0.327 -0.0132 -0.5224  1.1998
  629SOL    HW2 1705   2.772   3.547   0.394  3.6111 -0.3479  0.2923
  629SOL     MW 1706   2.772   3.596   0.322  0.5126 -0.3195  0.2396
  630SOL     OW 1707   5.955   3.447   3.663 -0.3740  0.0954  0.3758
  630SOL    HW1 1708   5.925   3.521   3.610  0.0632 -1.2085 -1.7613
  630SOL    HW2 1709   5.879   3.387   3.665  0.1490 -0.5992 -0.1867
  630SOL     MW 1710   5.941   3.449   3.656 -0.2508 -0.1607  0.0300
  631SOL     OW 1711   4.038   4.429   1.841  0.3612 -0.3477  0.1520
  631SOL    HW1 1712   3.946   4.445   1.864 -0.5080 -0.3365 -3.0963
  631SOL    HW2 1713   4.034   4.371   1.765  3.0400  0.3547 -0.5790
  631SOL     MW 1714   4.025   4.424   1.834  0.5932 -0.2565 -0.3574
  632SOL     OW 1715   3.493   3.383   3.140 -0.0211 -0.5705  0.2808
  632SOL    HW1 1716   3.457   3.417   3.222  0.4836 -1.3315  0.8193
  632SOL    HW2 1717   3.496   3.459   3.082  1.4842  0.4177  1.6089
  632SOL     MW 1718   3.488   3.397   3.143  0.2365 -0.5412  0.5198
  633SOL     OW 1719   2.207   2.873   0.312 -0.3905 -0.5715  0.5315
  633SOL    HW1 1720   2.153   2.820   0.253 -1.3355  0.2933  0.5864
  633SOL    HW2 1721   2.182   2.844   0.399 -1.5713  0.5505  0.5904
  633SOL     MW 1722   2.197   2.863   0.315 -0.6626 -0.3173  0.5461
  634SOL     OW 1723   4.807   1.246   4.546  0.1583 -0.1612 -0.0372
  634SOL    HW1 1724   4.811   1.241   4.451 -0.7342 -3.2157  0.0279
  634SOL    HW2 1725   4.714   1.253   4.566  0.4159  1.8929  0.6085
  634SOL     MW 1726   4.796   1.246   4.537  0.0763 -0.2893  0.0534
  635SOL     OW 1727   5.541   5.304   2.861  0.1075  0.4063  0.4352
  635SOL    HW1 1728   5.624   5.261   2.882  0.5630  0.9362 -0.2629
  635SOL    HW2 1729   5.533   5.374   2.926 -0.0275  0.0414  0.8067
  635SOL     MW 1730   5.550   5.308   2.872  0.1493  0.4272  0.3936
  636SOL     OW 1731   1.704   4.261   5.021 -0.1785 -0.7689 -0.0533
  636SOL    HW1 1732   1.635   4.327   5.024  0.6026  0.0001  1.6561
  636SOL    HW2 1733   1.669   4.188   5.071 -0.1077 -0.7254  0.0601
  636SOL     MW 1734   1.691   4.260   5.028 -0.0694 -0.6652  0.1802
  637SOL     OW 1735   4.748   4.815   1.098  0.0525 -0.2835 -0.4487
  637SOL    HW1 1736   4.811   4.807   1.027 -1.2348 -1.2315 -1.5237
  637SOL    HW2 1737   4.674   4.863   1.059 -1.7986 -3.1388 -0.5843
  637SOL     MW 1738   4.746   4.820   1.084 -0.3495 -0.7706 -0.6038
  638SOL     OW 1739   5.024   1.584   1.392  0.2162 -0.4691  0.2581
  638SOL    HW1 1740   4.933   1.610   1.408  0.6831  0.9414  0.7741
  638SOL    HW2 1741   5.042   1.615   1.303  0.4567  0.0858  0.4934
  638SOL     MW 1742   5.015   1.592   1.383  0.3071 -0.2176  0.3543
  639SOL     OW 1743   3.462   4.360   2.070 -0.1212  0.4076 -0.6556
  639SOL    HW1 1744   3.483   4.298   2.140 -0.0995  1.9147  0.7060
  639SOL    HW2 1745   3.515   4.331   1.996  0.8779 -0.4228  0.3608
  639SOL     MW 1746   3.472   4.348   2.070  0.0095  0.4945 -0.3512
  640SOL     OW 1747   0.507   2.192   4.205 -0.2498  0.3013 -0.4338
  640SOL    HW1 1748   0.435   2.222   4.150  0.1390  1.7652 -0.1851
  640SOL    HW2 1749   0.503   2.250   4.282 -0.9012 -1.8172  1.1797
  640SOL     MW 1750   0.497   2.204   4.208 -0.2834  0.2177 -0.1950
  641SOL     OW 1751   3.714   1.886   3.768 -0.1528 -0.0177  0.4775
  641SOL    HW1 1752   3.784   1.950   3.785  0.4716 -1.0190  1.7766
  641SOL    HW2 1753   3.633   1.935   3.782  0.1889  1.6241 -2.6796
  641SOL     MW 1754   3.713   1.901   3.772 -0.0293  0.0641  0.2396
  642SOL     OW 1755   2.175   5.833   3.944  0.0721 -0.4615  0.4621
  642SOL    HW1 1756   2.086   5.810   3.916  0.0689 -0.0748  0.1457
  642SOL    HW2 1757   2.170   5.834   4.040 -0.5580  0.6524  0.4355
  642SOL     MW 1758   2.163   5.830   3.953 -0.0088 -0.2699  0.4182
  643SOL     OW 1759   5.585   5.568   2.678 -0.0891  0.1678 -0.3346
  643SOL    HW1 1760   5.561   5.490   2.726  0.2881  0.2784  0.0358
  643SOL    HW2 1761   5.516   5.578   2.612 -0.0615 -0.5533 -0.4769
  643SOL     MW 1762   5.573   5.560   2.675 -0.0377  0.0896 -0.3057
  644SOL     OW 1763   4.479   4.717   1.690  0.2105 -0.3187  0.0205
  644SOL    HW1 1764   4.463   4.809   1.670 -0.0592 -0.7219 -1.7166
  644SOL    HW2 1765   4.512   4.717   1.780  0.4183  1.4857 -0.0403
  644SOL     MW 1766   4.481   4.729   1.699  0.2027 -0.1388 -0.2096
  645SOL     OW 1767   4.869   0.365   2.444  0.5990  0.5930  0.9513
  645SOL    HW1 1768   4.785   0.353   2.490  0.2553 -1.4417 -0.1228
  645SOL    HW2 1769   4.859   0.448   2.398 -0.8891  0.3416  0.7755
  645SOL     MW 1770   4.857   0.374   2.444  0.3648  0.3003  0.7913
  646SOL     OW 1771   0.377   5.320   0.687 -0.1854  0.1969  0.6203
  646SOL    HW1 1772   0.303   5.352   0.635  0.8223  0.4209 -0.7075
  646SOL    HW2 1773   0.422   5.259   0.629  0.1926 -0.5846  1.7293
  646SOL     MW 1774   0.373   5.316   0.673 -0.0080  0.1254  0.5923
  647SOL     OW 1775   3.814   5.341   2.784  0.2205  0.0123 -0.2358
  647SOL    HW1 1776   3.895   5.311   2.743 -0.7777 -1.0787 -1.4731
  647SOL    HW2 1777   3.818   5.436   2.779  1.4039 -0.0322 -0.3092
  647SOL     MW 1778   3.825   5.349   2.778  0.2441 -0.1330 -0.4034
  648SOL     OW 1779   3.537   0.574   4.686  0.8312 -1.0681  0.1656
  648SOL    HW1 1780   3.622   0.531   4.692  0.8828 -0.9372  0.3695
  648SOL    HW2 1781   3.555   0.657   4.642  1.0480 -0.3901  1.4970
  648SOL     MW 1782   3.550   0.579   4.681  0.8655 -0.9645  0.3614
  649SOL     OW 1783   4.468   2.242   4.580  0.3795 -0.0111 -0.1384
  649SOL    HW1 1784   4.431   2.211   4.498  1.7781  1.7079 -1.4436
  649SOL    HW2 1785   4.392   2.258   4.636 -0.7121  0.5832 -1.7571
  649SOL     MW 1786   4.454   2.240   4.577  0.4182  0.2851 -0.5131
  650SOL     OW 1787   3.001   1.015   4.581 -0.1995 -0.1737 -0.1609
  650SOL    HW1 1788   3.066   1.079   4.611 -1.1079  1.3749 -1.4290
  650SOL    HW2 1789   3.052   0.951   4.530  0.3411  1.0729 -1.2180
  650SOL     MW 1790   3.016   1.015   4.578 -0.2463  0.1842 -0.4592
  651SOL     OW 1791   4.336   4.748   5.424 -0.3701  0.0074 -0.5958
  651SOL    HW1 1792   4.332   4.665   5.378  1.6450 -0.5374  0.1889
  651SOL    HW2 1793   4.247   4.760   5.459  0.0825 -3.3607  1.9535
  651SOL     MW 1794   4.324   4.739   5.423 -0.0539 -0.4930 -0.1693
  652SOL     OW 1795   4.874   0.422   1.710 -0.3459  0.0995 -0.1754
  652SOL    HW1 1796   4.805   0.386   1.654 -0.3418 -1.8811  1.0257
  652SOL    HW2 1797   4.917   0.345   1.747  1.1751  1.3429  0.7008
  652SOL     MW 1798   4.871   0.408   1.708 -0.1507  0.0052  0.0905
  653SOL     OW 1799   3.377   3.800   5.191  0.4993  0.6531 -1.0336
  653SOL    HW1 1800   3.368   3.741   5.116 -0.1225  0.4514 -0.8045
  653SOL    HW2 1801   3.467   3.833   5.185  0.5336  0.4426 -1.7205
  653SOL     MW 1802   3.387   3.797   5.180  0.4244  0.6003 -1.0915
  654SOL     OW 1803   4.010   0.325   5.797  0.0791  0.0732  0.5747
  654SOL    HW1 1804   3.975   0.393   5.739  1.5765 -0.6271 -1.2116
  654SOL    HW2 1805   4.095   0.359   5.825  0.8251 -0.9980 -0.3043
  654SOL     MW 1806   4.017   0.338   5.793  0.3662 -0.1535  0.2337
  655SOL     OW 1807   4.225   2.599   4.855 -0.4032  0.4393  0.7776
  655SOL    HW1 1808   4.201   2.511   4.882 -1.0353  0.8110  1.4323
  655SOL    HW2 1809   4.198   2.604   4.763 -0.9627  0.1808  0.9300
  655SOL     MW 1810   4.219   2.588   4.847 -0.5555  0.4535  0.8812
  656SOL     OW 1811   0.862   0.097   5.555  0.2153  0.0406 -0.2240
  656SOL    HW1 1812   0.873   0.103   5.461  0.7496 -0.7581 -0.2234
  656SOL    HW2 1813   0.852   0.003   5.572  3.7451 -0.2239  0.8819
  656SOL     MW 1814   0.862   0.086   5.545  0.7355 -0.0955 -0.0820
  657SOL     OW 1815   2.983   3.975   3.551 -0.4296  0.2558  0.4980
  657SOL    HW1 1816   2.959   3.941   3.637 -1.8042  1.5492  0.6475
  657SOL    HW2 1817   2.945   4.063   3.548  2.5001  1.5956 -0.1127
  657SOL     MW 1818   2.975   3.982   3.562 -0.2306  0.5927  0.4389
  658SOL     OW 1819   3.604   3.826   4.592  0.4434 -0.6699  0.0844
  658SOL    HW1 1820   3.637   3.884   4.661 -0.2766  0.1261 -0.2290
  658SOL    HW2 1821   3.665   3.840   4.519 -0.3020  0.4762 -0.3432
  658SOL     MW 1822   3.616   3.835   4.591  0.2558 -0.4215 -0.0105
  659SOL     OW 1823   5.137   1.225   5.418  0.3381 -0.0362 -0.1031
  659SOL    HW1 1824   5.106   1.137   5.438  0.1416 -0.3492 -1.6731
  659SOL    HW2 1825   5.141   1.269   5.502  0.7565 -1.6508  0.7410
  659SOL     MW 1826   5.133   1.219   5.431  0.3662 -0.2829 -0.1960
  660SOL     OW 1827   4.164   1.279   0.265 -0.0203  0.6968 -0.2419
  660SOL    HW1 1828   4.140   1.371   0.251  1.0614  0.7125 -2.1190
  660SOL    HW2 1829   4.080   1.234   0.271 -0.5552  1.6148 -0.6820
  660SOL     MW 1830   4.150   1.285   0.264  0.0496  0.8163 -0.5386
  661SOL     OW 1831   3.169   3.200   4.629  0.4552  0.0088 -0.2843
  661SOL    HW1 1832   3.251   3.166   4.664 -1.1945 -1.2968  2.5004
  661SOL    HW2 1833   3.143   3.136   4.563  1.9036  0.6999 -1.5572
  661SOL     MW 1834   3.176   3.188   4.625  0.4296 -0.0701 -0.0911
  662SOL     OW 1835   5.649   4.495   5.597  0.6804  0.5344 -0.3685
  662SOL    HW1 1836   5.637   4.473   5.504 -0.6408 -2.2755  0.4035
  662SOL    HW2 1837   5.708   4.427   5.629 -0.0546  0.6149  1.1757
  662SOL     MW 1838   5.655   4.483   5.589  0.4168  0.1850 -0.0725
  663SOL     OW 1839   0.123   3.789   1.135  0.7243 -0.0056 -0.7556
  663SOL    HW1 1840   0.099   3.700   1.110 -0.4192  0.0467  0.1658
  663SOL    HW2 1841   0.219   3.785   1.145  0.4028 -1.9060  2.2664
  663SOL     MW 1842   0.132   3.777   1.133  0.5368 -0.2422 -0.2508
  664SOL     OW 1843   0.325   5.932   1.001  0.1527 -0.0854  0.0128
  664SOL    HW1 1844   0.375   5.850   1.010  0.7575  0.1359 -1.2226
  664SOL    HW2 1845   0.264   5.914   0.930  2.3036  1.5030 -2.3165
  664SOL     MW 1846   0.324   5.919   0.993  0.5055  0.1459 -0.4434
  665SOL     OW 1847   2.642   3.137   2.044 -0.3495  0.2676 -0.0249
  665SOL    HW1 1848   2.648   3.044   2.066 -0.2084  0.4868  0.8880
  665SOL    HW2 1849   2.733   3.166   2.034 -0.3535  0.5485  0.7353
  665SOL     MW 1850   2.654   3.129   2.045 -0.3319  0.3319  0.1891
  666SOL     OW 1851   3.928   2.936   5.235  0.1830  0.8764  0.3840
  666SOL    HW1 1852   4.014   2.976   5.249  0.3632  0.0587  1.7064
  666SOL    HW2 1853   3.871   2.979   5.299 -0.5442  1.8462 -0.8927
  666SOL     MW 1854   3.932   2.947   5.245  0.1130  0.8957  0.3901
  667SOL     OW 1855   2.581   2.153   3.633 -0.5084 -0.4772 -0.0149
  667SOL    HW1 1856   2.556   2.193   3.550 -1.9424 -2.3159 -0.5082
  667SOL    HW2 1857   2.666   2.191   3.653  0.4401 -0.9186 -2.9584
  667SOL     MW 1858   2.588   2.163   3.625 -0.5705 -0.7689 -0.4551
  668SOL     OW 1859   4.545   4.634   4.008 -0.2647 -0.1659  0.0695
  668SOL    HW1 1860   4.522   4.698   3.940  1.2136 -1.4674 -1.7366
  668SOL    HW2 1861   4.622   4.672   4.051 -1.3958  0.8125  1.2556
  668SOL     MW 1862   4.552   4.647   4.005 -0.2198 -0.2069 -0.0100
  669SOL     OW 1863   5.454   0.116   3.014 -0.0268 -0.2723 -0.3207
  669SOL    HW1 1864   5.514   0.047   2.986 -2.0163 -1.9727 -0.5190
  669SOL    HW2 1865   5.434   0.164   2.933  0.0136 -0.5273 -0.4812
  669SOL     MW 1866   5.459   0.113   3.000 -0.2761 -0.5226 -0.3669
  670SOL     OW 1867   4.434   1.070   5.035  0.1837  0.5668 -0.4246
  670SOL    HW1 1868   4.339   1.084   5.027 -0.2234 -2.3638 -1.2682
  670SOL    HW2 1869   4.453   1.000   4.974  2.7762  0.5077  0.4058
  670SOL     MW 1870   4.424   1.063   5.026  0.4635  0.1842 -0.4263
  671SOL     OW 1871   1.281   0.367   2.741  0.2584  0.0723  0.2070
  671SOL    HW1 1872   1.346   0.416   2.791 -0.1773  0.3583  0.5003
  671SOL    HW2 1873   1.306   0.275   2.753  1.0876  0.2191 -0.3612
  671SOL     MW 1874   1.292   0.362   2.749  0.3086  0.1277  0.1717
  672SOL     OW 1875   3.610   5.618   0.283  0.1145 -0.6150  0.2010
  672SOL    HW1 1876   3.538   5.555   0.276  0.9088 -1.5225  0.1602
  672SOL    HW2 1877   3.647   5.604   0.370  0.0296  0.0967  0.3594
  672SOL     MW 1878   3.605   5.608   0.293  0.2055 -0.6399  0.2161
  673SOL     OW 1879   1.596   3.918   4.548  0.3338 -0.3618 -0.2947
  673SOL    HW1 1880   1.628   3.852   4.486 -1.2568 -0.9673 -0.5223
  673SOL    HW2 1881   1.564   3.867   4.622 -0.7580  0.1579 -0.4000
  673SOL     MW 1882   1.596   3.903   4.549 -0.0095 -0.3729 -0.3376
  674SOL     OW 1883   1.199   2.307   4.247 -0.8576 -0.1485  0.2839
  674SOL    HW1 1884   1.108   2.282   4.231 -0.9860  1.3151 -1.3806
  674SOL    HW2 1885   1.194   2.364   4.324 -0.9743 -2.4029  1.9755
  674SOL     MW 1886   1.187   2.311   4.255 -0.8889 -0.2499  0.2871
  675SOL     OW 1887   5.459   0.521   1.035  0.4858 -0.1367 -0.1344
  675SOL    HW1 1888   5.372   0.486   1.055  0.4114  0.0464 -0.1415
  675SOL    HW2 1889   5.500   0.534   1.121 -0.0856  1.2910 -0.0792
  675SOL     MW 1890   5.453   0.518   1.049  0.4029  0.0695 -0.1280
  676SOL     OW 1891   1.035   5.848   5.494 -0.1541  0.0378  0.8261
  676SOL    HW1 1892   1.043   5.942   5.509  0.4289  0.1171  0.0725
  676SOL    HW2 1893   1.115   5.824   5.447 -0.3923 -0.7951  0.8271
  676SOL     MW 1894   1.046   5.857   5.490 -0.1099 -0.0591  0.7296
  677SOL     OW 1895   2.618   3.509   4.055  0.1850  0.0519 -0.3142
  677SOL    HW1 1896   2.657   3.453   3.988  0.5884 -0.6014  0.4564
  677SOL    HW2 1897   2.524   3.492   4.049  0.0456  1.2480 -1.8337
  677SOL     MW 1898   2.611   3.500   4.046  0.2189  0.1214 -0.4101
  678SOL     OW 1899   3.866   3.225   1.301 -0.6028  0.4409  0.1108
  678SOL    HW1 1900   3.862   3.272   1.218  1.2043  1.6392  0.6880
  678SOL    HW2 1901   3.859   3.133   1.276  1.0426  0.7249 -1.4923
  678SOL     MW 1902   3.865   3.219   1.287 -0.1609  0.6309 -0.0205
  679SOL     OW 1903   4.072   0.429   5.179 -0.0061 -0.4126 -0.5668
  679SOL    HW1 1904   4.032   0.515   5.184  0.1319 -0.3075 -1.2259
  679SOL    HW2 1905   4.145   0.439   5.117 -1.0098 -1.3905 -1.9463
  679SOL     MW 1906   4.076   0.441   5.172 -0.1168 -0.5244 -0.8283
  680SOL     OW 1907   3.670   1.687   2.215  0.2347  0.3406  0.7157
  680SOL    HW1 1908   3.734   1.637   2.165  0.9924 -0.0605  2.0626
  680SOL    HW2 1909   3.614   1.728   2.149  1.0052 -0.4528 -0.4393
  680SOL     MW 1910   3.671   1.685   2.200  0.4303  0.1876  0.7401
  681SOL     OW 1911   5.148   0.622   2.435 -0.1368  0.3772 -0.3451
  681SOL    HW1 1912   5.141   0.551   2.498  0.3050 -0.3783 -1.1422
  681SOL    HW2 1913   5.081   0.685   2.463  1.1849  0.8624  1.8805
  681SOL     MW 1914   5.139   0.621   2.447  0.0892  0.3425 -0.1624
  682SOL     OW 1915   2.673   2.127   2.508 -0.2332 -0.3233 -0.6901
  682SOL    HW1 1916   2.663   2.161   2.597 -2.7194  2.0710 -1.7994
  682SOL    HW2 1917   2.611   2.054   2.504 -1.6738  0.8723 -1.0143
  682SOL     MW 1918   2.664   2.122   2.519 -0.7358  0.1364 -0.8733
  683SOL     OW 1919   1.067   2.547   1.306 -0.5380  0.2892 -0.6148
  683SOL    HW1 1920   1.109   2.469   1.270 -1.6441 -1.0811  1.0311
  683SOL    HW2 1921   1.037   2.596   1.229  0.2979 -0.8147 -1.6573
  683SOL     MW 1922   1.069   2.543   1.291 -0.5727 -0.0274 -0.5376
  684SOL     OW 1923   3.966   0.322   4.319 -0.3494  0.5865 -0.7261
  684SOL    HW1 1924   3.871   0.332   4.314 -0.5616 -0.6804  0.5697
  684SOL    HW2 1925   3.994   0.391   4.378 -0.6696 -0.1359  0.2789
  684SOL     MW 1926   3.957   0.332   4.326 -0.4172  0.3318 -0.4315
  685SOL     OW 1927   0.065   5.395   1.297 -0.1007  0.0212 -0.3206
  685SOL    HW1 1928   0.024   5.311   1.321 -2.1181  0.7969 -0.9060
  685SOL    HW2 1929   0.014   5.425   1.222  2.6834  0.2270 -2.1706
  685SOL     MW 1930   0.053   5.388   1.290 -0.0025  0.1469 -0.6323
  686SOL     OW 1931   4.220   5.906   4.250  0.7469  0.1162 -0.4673
  686SOL    HW1 1932   4.135   5.949   4.242 -0.4931 -2.2206 -0.2711
  686SOL    HW2 1933   4.229   5.890   4.344  1.7347  0.9969 -0.4092
  686SOL     MW 1934   4.210   5.909   4.261  0.7143 -0.0696 -0.4344
  687SOL     OW 1935   4.288   5.687   2.628 -0.1588  0.0019 -0.3839
  687SOL    HW1 1936   4.196   5.694   2.653 -0.1759  1.1171 -0.7324
  687SOL    HW2 1937   4.305   5.765   2.574  0.8440 -0.4686 -0.7698
  687SOL     MW 1938   4.279   5.698   2.625 -0.0324  0.0839 -0.4778
  688SOL     OW 1939   5.054   4.957   3.952 -0.4951 -0.1113  0.0186
  688SOL    HW1 1940   5.027   4.888   3.892  0.5417 -0.0443 -0.5357
  688SOL    HW2 1941   5.044   5.038   3.902 -1.2150  0.0985  0.4941
  688SOL     MW 1942   5.049   4.959   3.938 -0.4554 -0.0763  0.0086
  689SOL     OW 1943   4.641   5.714   5.468 -0.0523 -0.0748 -0.3368
  689SOL    HW1 1944   4.634   5.709   5.373  0.3107  1.0802 -0.4254
  689SOL    HW2 1945   4.676   5.628   5.494  1.2161  0.1159 -1.3826
  689SOL     MW 1946   4.645   5.702   5.459  0.1564  0.0973 -0.4821
  690SOL     OW 1947   4.405   1.296   4.041  0.2555  0.0351 -0.2043
  690SOL    HW1 1948   4.454   1.376   4.022 -0.7931  1.0403  1.2391
  690SOL    HW2 1949   4.324   1.327   4.082  0.0767 -1.7938  0.8416
  690SOL     MW 1950   4.401   1.311   4.044  0.0987 -0.0703  0.1144
  691SOL     OW 1951   4.828   2.172   2.418 -0.2079 -0.0740 -0.0841
  691SOL    HW1 1952   4.802   2.089   2.378 -1.0024 -0.0719  0.4291
  691SOL    HW2 1953   4.805   2.162   2.510 -0.3751  0.7504 -0.0385
  691SOL     MW 1954   4.822   2.160   2.425 -0.3309  0.0317 -0.0126
  692SOL     OW 1955   1.709   4.917   5.069 -0.7339 -0.0877 -0.9959
  692SOL    HW1 1956   1.772   4.845   5.075 -2.3643 -1.5062 -0.6892
  692SOL    HW2 1957   1.634   4.888   5.121 -1.6284  1.6078 -1.3073
  692SOL     MW 1958   1.708   4.904   5.077 -1.0570 -0.0520 -0.9961
  693SOL     OW 1959   2.971   5.622   3.322 -0.1642 -0.0682 -0.4229
  693SOL    HW1 1960   2.964   5.711   3.356  0.0069 -0.2343  0.0458
  693SOL    HW2 1961   3.002   5.570   3.396 -0.7456 -0.6117 -0.5595
  693SOL     MW 1962   2.974   5.627   3.336 -0.2165 -0.1593 -0.3803
  694SOL     OW 1963   1.017   0.068   1.354 -0.3497  0.3021  0.2696
  694SOL    HW1 1964   0.965   0.139   1.393  2.7631  1.9967  1.5103
  694SOL    HW2 1965   1.097   0.111   1.323  0.4010 -2.2489 -1.4871
  694SOL     MW 1966   1.020   0.083   1.355  0.1448  0.1924  0.2035
  695SOL     OW 1967   2.196   3.467   1.723  0.7548  0.1929 -0.4775
  695SOL    HW1 1968   2.241   3.539   1.678 -2.5439  0.5630 -3.3721
  695SOL    HW2 1969   2.103   3.489   1.717 -0.0847 -2.4184  1.9919
  695SOL     MW 1970   2.190   3.479   1.716  0.2251 -0.0939 -0.5320
  696SOL     OW 1971   3.820   5.433   5.820  0.0742  0.8096  0.7634
  696SOL    HW1 1972   3.760   5.410   5.749 -0.9694 -0.7243  2.0961
  696SOL    HW2 1973   3.774   5.503   5.867  0.5251  1.4541  0.2538
  696SOL     MW 1974   3.806   5.439   5.817 -0.0017  0.6957  0.8688
  697SOL     OW 1975   1.130   0.586   0.829 -0.1076  0.1162  0.1139
  697SOL    HW1 1976   1.140   0.670   0.784 -1.1155  0.3145  0.2529
  697SOL    HW2 1977   1.113   0.609   0.920  0.3377 -0.2549  0.2920
  697SOL     MW 1978   1.129   0.600   0.835 -0.1796  0.0941  0.1546
  698SOL     OW 1979   2.862   5.829   1.463 -0.5451 -0.7362  0.9774
  698SOL    HW1 1980   2.922   5.888   1.508 -1.0017  0.2633  0.3020
  698SOL    HW2 1981   2.820   5.883   1.396 -0.6313 -1.9448  0.0259
  698SOL     MW 1982   2.864   5.843   1.460 -0.6146 -0.7634  0.7691
  699SOL     OW 1983   5.730   3.675   3.167 -0.5179 -0.3005  0.2032
  699SOL    HW1 1984   5.652   3.621   3.156  0.0678 -1.0005 -0.6579
  699SOL    HW2 1985   5.788   3.623   3.222 -1.6571  1.3132  3.0162
  699SOL     MW 1986   5.728   3.662   3.173 -0.5889 -0.1833  0.4532
  700SOL     OW 1987   3.884   3.361   1.084  0.6129  0.2972  0.1381
  700SOL    HW1 1988   3.802   3.410   1.080 -0.1920 -0.9281  1.2276
  700SOL    HW2 1989   3.907   3.344   0.993  0.1316  1.4168 -0.2027
  700SOL     MW 1990   3.877   3.365   1.072  0.4482  0.2837  0.2340
  701SOL     OW 1991   1.820   2.208   0.818 -0.7948  0.5562 -0.3945
  701SOL    HW1 1992   1.820   2.119   0.854  0.0024  0.5674 -0.3695
  701SOL    HW2 1993   1.859   2.262   0.886 -0.5588  0.8033 -0.7246
  701SOL     MW 1994   1.825   2.204   0.831 -0.6627  0.5891 -0.4335
  702SOL     OW 1995   5.482   1.435   5.705 -0.1932  0.0062  0.6375
  702SOL    HW1 1996   5.439   1.510   5.746 -0.3659  0.9019 -1.1196
  702SOL    HW2 1997   5.435   1.359   5.737 -1.4607  0.8116  0.7231
  702SOL     MW 1998   5.471   1.435   5.714 -0.3772  0.2240  0.4239
  703SOL     OW 1999   0.430   0.093   5.101 -0.1893  0.6734 -0.4522
  703SOL    HW1 2000   0.525   0.102   5.094 -0.3018  1.3908 -1.1476
  703SOL    HW2 2001   0.402   0.064   5.014 -0.7406  1.7458 -0.6435
  703SOL     MW 2002   0.438   0.090   5.089 -0.2743  0.9025 -0.5660
  704SOL     OW 2003   2.275   1.264   2.349  0.3387  0.6206 -0.0863
  704SOL    HW1 2004   2.246   1.306   2.430 -0.9163 -0.1771 -0.1282
  704SOL    HW2 2005   2.232   1.314   2.280  0.6654  0.6954 -0.2410
  704SOL     MW 2006   2.266   1.276   2.350  0.2198  0.5280 -0.1116
  705SOL     OW 2007   3.684   3.055   3.052  0.0948  0.0136 -0.5426
  705SOL    HW1 2008   3.755   3.034   3.113  0.3682  1.2413 -0.4199
  705SOL    HW2 2009   3.720   3.033   2.966  0.1416 -0.6036 -0.3706
  705SOL     MW 2010   3.698   3.050   3.049  0.1359  0.0918 -0.5047
  706SOL     OW 2011   0.225   5.525   2.934 -0.2315 -0.0705 -0.2205
  706SOL    HW1 2012   0.161   5.537   2.865 -0.8622  0.2108  0.4031
  706SOL    HW2 2013   0.292   5.469   2.896 -1.1544 -0.8711 -0.6853
  706SOL     MW 2014   0.226   5.519   2.920 -0.4304 -0.1373 -0.2003
  707SOL     OW 2015   2.305   5.291   5.271 -0.4427 -0.8179  0.6746
  707SOL    HW1 2016   2.389   5.246   5.263 -0.7783 -1.2477 -0.5026
  707SOL    HW2 2017   2.328   5.379   5.302  0.3461 -1.2686  1.3942
  707SOL     MW 2018   2.319   5.297   5.274 -0.3848 -0.9303  0.6161
  708SOL     OW 2019   4.312   3.057   5.041 -0.2698 -0.1401  0.2044
  708SOL    HW1 2020   4.401   3.021   5.047  0.6289  1.5109 -2.5264
  708SOL    HW2 2021   4.277   3.021   4.960 -2.1082 -0.7258  1.2255
  708SOL     MW 2022   4.319   3.048   5.032 -0.3901 -0.0036 -0.0148
  709SOL     OW 2023   3.243   4.591   3.505  0.1927  0.6827  0.6762
  709SOL    HW1 2024   3.313   4.574   3.569 -0.0768 -1.0904  0.5284
  709SOL    HW2 2025   3.184   4.516   3.514 -1.2487  1.7429  0.1929
  709SOL     MW 2026   3.244   4.580   3.515 -0.0262  0.5918  0.5953
  710SOL     OW 2027   3.465   4.483   5.040  0.4865 -0.0534 -0.4710
  710SOL    HW1 2028   3.406   4.502   5.112 -0.7156 -1.3450 -1.0994
  710SOL    HW2 2029   3.448   4.391   5.018  0.1828  0.5787 -3.0034
  710SOL     MW 2030   3.455   4.473   5.046  0.2935 -0.1378 -0.8750
  711SOL     OW 2031   1.624   5.910   0.077 -0.7206 -0.2041  0.5375
  711SOL    HW1 2032   1.566   5.835   0.086 -0.5565 -0.3863  0.1371
  711SOL    HW2 2033   1.567   5.987   0.082 -1.4057 -0.4250 -2.5230
  711SOL     MW 2034   1.610   5.910   0.079 -0.7873 -0.2551  0.0945
  712SOL     OW 2035   4.491   3.613   5.066 -0.3660 -0.6162  0.2818
  712SOL    HW1 2036   4.461   3.539   5.120 -3.6267  0.0211 -0.5632
  712SOL    HW2 2037   4.472   3.690   5.118  3.0155 -0.2676  1.1455
  712SOL     MW 2038   4.485   3.613   5.079 -0.3505 -0.4900  0.2842
  713SOL     OW 2039   4.608   5.879   2.422 -0.2288 -0.3403  0.4864
  713SOL    HW1 2040   4.528   5.894   2.472 -0.5778  0.5207 -0.3181
  713SOL    HW2 2041   4.679   5.897   2.484 -0.6533  1.5204  0.4679
  713SOL     MW 2042   4.607   5.883   2.436 -0.3281  0.0086  0.3810
  714SOL     OW 2043   0.677   1.640   3.843  0.1633  0.0757 -0.3599
  714SOL    HW1 2044   0.593   1.601   3.818  0.3751 -1.4509  1.2562
  714SOL    HW2 2045   0.735   1.623   3.769 -0.1797 -1.3026 -0.3091
  714SOL     MW 2046   0.674   1.633   3.830  0.1466 -0.2961 -0.1466
  715SOL     OW 2047   3.395   5.864   1.946  0.6386  0.1711 -0.4070
  715SOL    HW1 2048   3.424   5.950   1.978  0.6080  0.9997 -2.5480
  715SOL    HW2 2049   3.476   5.815   1.933  0.7147  0.2429 -0.2118
  715SOL     MW 2050   3.409   5.869   1.949  0.6444  0.2856 -0.6561
  716SOL     OW 2051   5.791   4.679   3.935 -0.0498  0.6563  0.2867
  716SOL    HW1 2052   5.798   4.587   3.962 -1.1080  0.4747 -0.0378
  716SOL    HW2 2053   5.756   4.724   4.013 -0.3641  0.6325  0.1594
  716SOL     MW 2054   5.788   4.673   3.949 -0.2255  0.6299  0.2289
  717SOL     OW 2055   4.287   1.961   2.533  0.5759 -0.0427  0.4161
  717SOL    HW1 2056   4.332   2.010   2.465  1.6043  1.8080  2.3836
  717SOL    HW2 2057   4.278   2.022   2.606 -1.7211 -1.5501  1.4807
  717SOL     MW 2058   4.291   1.975   2.534  0.4134  0.0013  0.8039
  718SOL     OW 2059   1.779   1.155   3.215 -0.0135 -0.5161  0.1913
  718SOL    HW1 2060   1.801   1.069   3.179  0.8737 -0.1794 -0.0983
  718SOL    HW2 2061   1.827   1.216   3.159 -0.7338  0.1705  0.3285
  718SOL     MW 2062   1.788   1.152   3.203  0.0080 -0.3852  0.1719
  719SOL     OW 2063   0.848   3.869   4.472  0.3408  0.0789 -0.5695
  719SOL    HW1 2064   0.833   3.798   4.409  2.9805 -1.4263  0.3985
  719SOL    HW2 2065   0.935   3.902   4.448  0.7984  0.3534  1.4434
  719SOL     MW 2066   0.858   3.864   4.461  0.7373 -0.0784 -0.1884
  720SOL     OW 2067   4.170   3.472   1.180  0.3464  0.6410 -0.3623
  720SOL    HW1 2068   4.083   3.434   1.166 -0.5644  1.4140  2.7746
  720SOL    HW2 2069   4.230   3.409   1.141 -1.4264 -1.6424  0.4779
  720SOL     MW 2070   4.166   3.459   1.173  0.0033  0.4475  0.1467
  721SOL     OW 2071   3.481   0.293   2.514  0.2088  0.3553 -0.2300
  721SOL    HW1 2072   3.400   0.330   2.547  0.7225  0.9684  0.3469
  721SOL    HW2 2073   3.525   0.366   2.470 -0.5124 -0.4533 -2.3915
  721SOL     MW 2074   3.476   0.307   2.512  0.1822  0.3303 -0.4325
  722SOL     OW 2075   4.678   0.004   1.679 -0.5932 -0.3843  0.0615
  722SOL    HW1 2076   4.719   0.000   1.592 -0.3308 -0.1550  0.1722
  722SOL    HW2 2077   4.622  -0.073   1.683  0.3999 -1.1149  0.1846
  722SOL     MW 2078   4.676  -0.006   1.669 -0.4320 -0.4487  0.0914
  723SOL     OW 2079   4.939   2.181   0.561  0.3120 -0.4963 -0.1419
  723SOL    HW1 2080   4.860   2.188   0.614  1.1808 -0.5455  1.1684
  723SOL    HW2 2081   4.959   2.270   0.534  1.4255 -0.0933  1.9265
  723SOL     MW 2082   4.931   2.193   0.564  0.5655 -0.4511  0.2906
  724SOL     OW 2083   1.981   0.878   4.223 -0.1394  0.2568 -0.1142
  724SOL    HW1 2084   2.056   0.883   4.164 -0.1650 -2.0023 -0.3659
  724SOL    HW2 2085   1.906   0.867   4.165 -0.0092 -3.5608  0.3236
  724SOL     MW 2086   1.981   0.877   4.208 -0.1261 -0.5211 -0.0906
  725SOL     OW 2087   5.494   1.414   5.005 -0.2573 -0.4770 -0.2556
  725SOL    HW1 2088   5.480   1.418   4.911  0.6729 -0.9592 -0.4222
  725SOL    HW2 2089   5.545   1.334   5.018  0.2054 -0.0511  0.5798
  725SOL     MW 2090   5.499   1.404   4.995 -0.0792 -0.4842 -0.1702
  726SOL     OW 2091   5.414   1.271   0.206 -0.7185  0.6430 -0.0531
  726SOL    HW1 2092   5.497   1.226   0.189 -0.9782  0.2373 -0.2563
  726SOL    HW2 2093   5.439   1.356   0.243 -0.2617 -0.4834  2.2892
  726SOL     MW 2094   5.428   1.276   0.208 -0.6938  0.4468  0.2207
  727SOL     OW 2095   5.374   1.615   0.873 -0.0535 -0.5092 -0.2201
  727SOL    HW1 2096   5.319   1.681   0.831 -0.9236 -2.4382 -2.1750
  727SOL    HW2 2097   5.462   1.634   0.840 -0.1649  0.2038 -0.1124
  727SOL     MW 2098   5.379   1.626   0.863 -0.1793 -0.6648 -0.4566
  728SOL     OW 2099   5.262   3.011   5.592  0.7778 -0.7218  0.0440
  728SOL    HW1 2100   5.283   2.971   5.677 -0.3230 -0.4301  0.4584
  728SOL    HW2 2101   5.242   3.102   5.613 -1.5080 -1.1284 -0.2359
  728SOL     MW 2102   5.262   3.017   5.606  0.3438 -0.7367  0.0610
  729SOL     OW 2103   0.289   0.880   3.861 -0.3887 -0.1131 -0.6181
  729SOL    HW1 2104   0.376   0.850   3.835 -0.9542 -0.0029 -2.7771
  729SOL    HW2 2105   0.298   0.974   3.876 -0.1385 -0.0874 -0.9263
  729SOL     MW 2106   0.301   0.888   3.860 -0.4290 -0.0957 -0.9336
  730SOL     OW 2107   1.883   4.490   4.268  0.3923 -0.2822  0.4438
  730SOL    HW1 2108   1.797   4.497   4.227  1.0340  0.4417 -0.8061
  730SOL    HW2 2109   1.906   4.397   4.258  1.0006  0.0807 -1.8315
  730SOL     MW 2110   1.875   4.479   4.261  0.5523 -0.1426 -0.0076
  731SOL     OW 2111   1.799   1.996   2.647 -0.1649 -0.1517 -0.0231
  731SOL    HW1 2112   1.819   1.945   2.726  1.5096 -0.0055 -0.3346
  731SOL    HW2 2113   1.704   1.987   2.637 -0.2556 -1.0764  1.3837
  731SOL     MW 2114   1.789   1.988   2.656  0.0380 -0.2513  0.1171
  732SOL     OW 2115   4.800   5.349   3.106  0.5254  0.4175  0.1399
  732SOL    HW1 2116   4.829   5.281   3.045  0.4110  1.5104 -1.1642
  732SOL    HW2 2117   4.706   5.355   3.094  0.6105  1.2015 -0.1734
  732SOL     MW 2118   4.792   5.341   3.097  0.5217  0.6580 -0.0672
  733SOL     OW 2119   2.302   2.830   5.244 -0.0366  0.0934 -0.0363
  733SOL    HW1 2120   2.256   2.849   5.326 -1.7049  2.3034 -1.4139
  733SOL    HW2 2121   2.339   2.914   5.218  1.5922 -0.8790 -0.9094
  733SOL     MW 2122   2.301   2.843   5.251 -0.0415  0.2520 -0.3242
  734SOL     OW 2123   3.834   0.855   4.003  0.1468 -0.6477  0.4319
  734SOL    HW1 2124   3.746   0.819   4.001 -0.2029  0.1978  0.3503
  734SOL    HW2 2125   3.888   0.785   4.038 -0.5105 -1.2726  0.1992
  734SOL     MW 2126   3.830   0.842   4.007  0.0181 -0.6195  0.3915
  735SOL     OW 2127   1.891   5.179   5.419 -0.7574  0.6014  0.1863
  735SOL    HW1 2128   1.966   5.202   5.475 -0.2862  1.4356 -0.7673
  735SOL    HW2 2129   1.815   5.188   5.477  0.0832 -3.2591  2.0197
  735SOL     MW 2130   1.891   5.183   5.434 -0.5894  0.2141  0.2985
  736SOL     OW 2131   3.525   4.841   3.602  0.0964 -0.2612  0.1735
  736SOL    HW1 2132   3.540   4.893   3.681  0.2442  0.6256 -0.4284
  736SOL    HW2 2133   3.612   4.820   3.570  0.0517  0.5489 -0.5019
  736SOL     MW 2134   3.538   4.845   3.608  0.1097 -0.0439  0.0100
  737SOL     OW 2135   5.984   2.418   4.095  0.4464  0.3444 -0.1599
  737SOL    HW1 2136   6.030   2.382   4.171 -0.6459  0.3607  0.5195
  737SOL    HW2 2137   5.995   2.352   4.027  1.1500  0.1721  0.1207
  737SOL     MW 2138   5.991   2.405   4.096  0.3967  0.3240 -0.0367
  738SOL     OW 2139   0.207   5.208   0.276  0.1240 -0.1789 -0.0903
  738SOL    HW1 2140   0.239   5.207   0.186  1.8410 -0.4670  0.5091
  738SOL    HW2 2141   0.279   5.174   0.328 -1.5900 -1.9591  1.1864
  738SOL     MW 2142   0.220   5.204   0.271  0.1244 -0.4435  0.1498
  739SOL     OW 2143   1.901   1.360   3.494  0.0645 -0.1401 -0.0732
  739SOL    HW1 2144   1.807   1.348   3.477  0.3516 -1.6247 -0.7164
  739SOL    HW2 2145   1.912   1.455   3.501 -1.3369  0.1054 -0.8958
  739SOL     MW 2146   1.890   1.370   3.492 -0.0780 -0.2987 -0.2608
  740SOL     OW 2147   3.382   5.596   5.263 -0.4495 -0.2643 -0.0059
  740SOL    HW1 2148   3.453   5.660   5.265  1.9607 -2.8970  1.7945
  740SOL    HW2 2149   3.310   5.637   5.311  1.0923  1.0102  1.2271
  740SOL     MW 2150   3.382   5.609   5.269  0.0563 -0.4382  0.3824
  741SOL     OW 2151   5.909   1.560   0.725  0.0023 -0.0384  0.0244
  741SOL    HW1 2152   5.888   1.467   0.728 -1.7415  0.3653  0.8103
  741SOL    HW2 2153   5.936   1.582   0.814 -3.1058  0.9670  0.7883
  741SOL     MW 2154   5.910   1.551   0.737 -0.6185  0.1419  0.2227
  742SOL     OW 2155   2.166   2.791   3.501  0.1178  0.1908 -0.2596
  742SOL    HW1 2156   2.250   2.834   3.516  0.1316 -0.5383  1.8851
  742SOL    HW2 2157   2.183   2.729   3.430  0.5169  2.4179 -2.2013
  742SOL     MW 2158   2.179   2.789   3.494  0.1707  0.3824 -0.2337
  743SOL     OW 2159   0.474   1.653   5.217 -0.3250 -0.4283  0.1014
  743SOL    HW1 2160   0.509   1.566   5.197 -0.8651 -0.7125  0.3710
  743SOL    HW2 2161   0.432   1.642   5.302  0.3027  0.2975  0.5029
  743SOL     MW 2162   0.473   1.640   5.225 -0.3138 -0.3718  0.1879
  744SOL     OW 2163   5.454   3.370   1.015  0.0030  0.4929 -0.3027
  744SOL    HW1 2164   5.407   3.434   1.068 -1.1253 -0.0024 -0.6973
  744SOL    HW2 2165   5.486   3.305   1.078 -2.0145 -0.5199 -0.3002
  744SOL     MW 2166   5.452   3.370   1.030 -0.3991  0.2997 -0.3530
  745SOL     OW 2167   4.630   0.676   5.760  0.7514  0.1164 -0.1664
  745SOL    HW1 2168   4.560   0.718   5.712 -0.0249 -0.0598  0.7886
  745SOL    HW2 2169   4.643   0.731   5.837  0.9934 -0.3770  0.1497
  745SOL     MW 2170   4.623   0.688   5.764  0.6828  0.0306 -0.0038
  746SOL     OW 2171   5.794   5.141   4.476  0.3165  0.0405 -0.3482
  746SOL    HW1 2172   5.859   5.121   4.408 -0.7490  0.5506 -1.5485
  746SOL    HW2 2173   5.806   5.235   4.492  0.5209 -0.0673  0.1238
  746SOL     MW 2174   5.804   5.151   4.469  0.2060  0.0920 -0.4411
  747SOL     OW 2175   3.678   5.481   1.272 -0.7457 -0.1513 -0.5759
  747SOL    HW1 2176   3.594   5.486   1.317  0.2553  0.0159  1.2857
  747SOL    HW2 2177   3.702   5.389   1.276 -0.4780 -0.0759 -0.4615
  747SOL     MW 2178   3.670   5.470   1.278 -0.5832 -0.1202 -0.3228
  748SOL     OW 2179   0.128   4.630   5.477 -0.5877 -0.5160  0.9749
  748SOL    HW1 2180   0.074   4.617   5.555 -1.7288  0.3165  0.3355
  748SOL    HW2 2181   0.067   4.664   5.411  0.7202  0.4294  0.2413
  748SOL     MW 2182   0.113   4.632   5.479 -0.5663 -0.2885  0.7992
  749SOL     OW 2183   3.708   0.211   2.720 -0.3313 -0.0424 -0.1136
  749SOL    HW1 2184   3.660   0.174   2.794 -1.8760 -0.1611 -1.1506
  749SOL    HW2 2185   3.641   0.253   2.667  1.1827  3.0537  0.3061
  749SOL     MW 2186   3.693   0.212   2.723 -0.3352  0.3388 -0.1926
  750SOL     OW 2187   1.894   1.562   2.596 -0.1134 -0.3964 -0.2831
  750SOL    HW1 2188   1.940   1.533   2.517  1.8676  1.1496  0.2548
  750SOL    HW2 2189   1.827   1.622   2.564  0.6382  0.1738 -0.7976
  750SOL     MW 2190   1.891   1.566   2.582  0.2363 -0.1255 -0.2801
  751SOL     OW 2191   1.129   4.926   5.439  0.4615 -0.1953 -0.2108
  751SOL    HW1 2192   1.164   4.864   5.375 -0.5848  1.4014 -2.3867
  751SOL    HW2 2193   1.206   4.956   5.488  1.7494  0.8247 -2.7534
  751SOL     MW 2194   1.143   4.922   5.437  0.4923  0.1402 -0.8149
  752SOL     OW 2195   2.489   4.484   2.982 -0.2427 -0.1561 -0.0484
  752SOL    HW1 2196   2.578   4.468   3.013 -0.4407  0.3131  0.7839
  752SOL    HW2 2197   2.436   4.481   3.061 -0.9748 -0.4429 -0.5436
  752SOL     MW 2198   2.494   4.481   2.996 -0.3617 -0.1330 -0.0052
  753SOL     OW 2199   2.828   1.659   4.993  0.3879 -0.1565 -0.5599
  753SOL    HW1 2200   2.906   1.689   4.947 -0.5746  1.4042 -1.2006
  753SOL    HW2 2201   2.757   1.714   4.960 -1.0118 -1.6080 -0.0573
  753SOL     MW 2202   2.829   1.670   4.983  0.0854 -0.1425 -0.5779
  754SOL     OW 2203   3.223   3.242   5.246 -0.0810 -0.2606  0.2464
  754SOL    HW1 2204   3.265   3.164   5.281 -1.1604 -1.4878 -1.1640
  754SOL    HW2 2205   3.133   3.216   5.230 -1.0342  1.9003  1.7920
  754SOL     MW 2206   3.217   3.229   5.248 -0.3407 -0.1411  0.2642
  755SOL     OW 2207   0.673   4.857   4.221 -0.2600  0.1201 -0.2120
  755SOL    HW1 2208   0.677   4.937   4.273 -2.4572  0.0641  0.1071
  755SOL    HW2 2209   0.582   4.827   4.231  0.6220 -2.6271  0.0030
  755SOL     MW 2210   0.662   4.863   4.229 -0.4284 -0.2384 -0.1435
  756SOL     OW 2211   4.701   0.361   2.120 -0.1658  0.5981  0.1782
  756SOL    HW1 2212   4.789   0.384   2.149  0.2770 -1.7317  0.7928
  756SOL    HW2 2213   4.677   0.285   2.174 -1.1497 -0.9524 -2.3555
  756SOL     MW 2214   4.709   0.354   2.131 -0.2346  0.1013 -0.0675
  757SOL     OW 2215   2.445   3.691   5.805 -0.1844 -0.4542  0.0759
  757SOL    HW1 2216   2.461   3.671   5.712 -0.5112 -2.6967  0.4809
  757SOL    HW2 2217   2.533   3.691   5.844 -0.0623  0.3053 -0.1905
  757SOL     MW 2218   2.459   3.688   5.798 -0.2108 -0.6442  0.0935
  758SOL     OW 2219   3.399   5.735   1.340  0.3406 -0.1169 -0.8237
  758SOL    HW1 2220   3.307   5.755   1.324 -0.2129 -1.1649  0.8562
  758SOL    HW2 2221   3.400   5.640   1.351  1.5278 -0.0283 -0.1764
  758SOL     MW 2222   3.387   5.725   1.339  0.4218 -0.2398 -0.5258
  759SOL     OW 2223   0.315   2.801   0.906 -0.1904 -0.1804 -0.1610
  759SOL    HW1 2224   0.266   2.747   0.844 -1.6724  0.3258  0.5557
  759SOL    HW2 2225   0.298   2.891   0.878 -0.9789  0.0524  1.0529
  759SOL     MW 2226   0.307   2.806   0.894 -0.4811 -0.0858  0.0861
  760SOL     OW 2227   4.000   4.699   1.084  0.7442 -0.0496 -0.2615
  760SOL    HW1 2228   4.022   4.639   1.012 -2.6441 -0.8957 -0.6917
  760SOL    HW2 2229   4.002   4.786   1.043  0.3929 -0.3799 -0.9993
  760SOL     MW 2230   4.003   4.702   1.069  0.2651 -0.1998 -0.4109
  761SOL     OW 2231   2.671   1.330   4.883 -0.1361  0.5682 -0.4180
  761SOL    HW1 2232   2.687   1.252   4.829 -0.5907 -0.3386  0.7316
  761SOL    HW2 2233   2.654   1.295   4.971  1.7073  2.0867  0.5823
  761SOL     MW 2234   2.671   1.316   4.887  0.0417  0.6464 -0.1421
  762SOL     OW 2235   0.318   4.416   2.986  0.4243 -0.7849  0.5372
  762SOL    HW1 2236   0.395   4.444   2.937  0.9493  0.1141  1.8560
  762SOL    HW2 2237   0.339   4.329   3.017 -0.2869 -1.7593 -1.6009
  762SOL     MW 2238   0.330   4.409   2.984  0.4004 -0.7944  0.4323
  763SOL     OW 2239   5.591   5.861   1.070  0.0146 -0.3796  0.2172
  763SOL    HW1 2240   5.499   5.847   1.050  0.2306 -1.0140 -0.3592
  763SOL    HW2 2241   5.613   5.793   1.134  0.2262 -0.5968 -0.0838
  763SOL     MW 2242   5.582   5.850   1.076  0.0691 -0.4888  0.1049
  764SOL     OW 2243   5.786   0.825   4.614  0.0409 -0.4279 -0.3363
  764SOL    HW1 2244   5.799   0.907   4.568 -0.7601 -1.3572 -2.2518
  764SOL    HW2 2245   5.798   0.847   4.707  1.8458  1.4179 -0.9733
  764SOL     MW 2246   5.789   0.838   4.620  0.1688 -0.3106 -0.6628
  765SOL     OW 2247   0.887   2.110   2.973  0.0587 -0.0711  0.7655
  765SOL    HW1 2248   0.933   2.133   3.054 -1.8600 -2.2316  2.5462
  765SOL    HW2 2249   0.801   2.152   2.981 -0.5496 -1.2063  0.3849
  765SOL     MW 2250   0.882   2.118   2.984 -0.2649 -0.4928  0.9446
  766SOL     OW 2251   0.350   4.450   0.777  0.0974 -0.2273  0.0467
  766SOL    HW1 2252   0.385   4.536   0.753  0.1561  0.1878  1.5319
  766SOL    HW2 2253   0.422   4.389   0.761  0.1611  0.0490 -0.7165
  766SOL     MW 2254   0.364   4.453   0.772  0.1131 -0.1388  0.1392
  767SOL     OW 2255   3.681   5.660   3.802 -0.2601 -0.3662 -0.0944
  767SOL    HW1 2256   3.614   5.646   3.869  1.2579  0.6013  1.6722
  767SOL    HW2 2257   3.760   5.619   3.838  0.8695  1.1696 -0.7623
  767SOL     MW 2258   3.683   5.653   3.815  0.0789 -0.0463  0.0460
  768SOL     OW 2259   5.572   5.412   3.340  0.1600  0.5236 -0.3799
  768SOL    HW1 2260   5.640   5.478   3.335 -0.9356  1.9148  2.2569
  768SOL    HW2 2261   5.615   5.334   3.375  0.7695  0.8015 -0.5173
  768SOL     MW 2262   5.586   5.410   3.344  0.0978  0.7372 -0.0601
  769SOL     OW 2263   5.189   4.656   5.355 -0.1743  0.4604 -0.0767
  769SOL    HW1 2264   5.222   4.719   5.291  0.1730  1.7241  1.3351
  769SOL    HW2 2265   5.236   4.676   5.436 -1.5931 -0.2426  0.9473
  769SOL     MW 2266   5.200   4.667   5.357 -0.3114  0.5322  0.2351
  770SOL     OW 2267   0.670   4.990   1.939 -0.0079  0.5610  0.4486
  770SOL    HW1 2268   0.738   4.986   2.006  0.4353  2.2575  0.1372
  770SOL    HW2 2269   0.594   5.027   1.985 -0.7218 -1.2762  0.7825
  770SOL     MW 2270   0.669   4.994   1.954 -0.0426  0.5426  0.4513
  771SOL     OW 2271   2.283   1.942   4.533  0.5686 -0.0078  0.2370
  771SOL    HW1 2272   2.238   1.874   4.583  2.6193 -3.1981 -2.0544
  771SOL    HW2 2273   2.367   1.953   4.577 -0.4733  2.5822  1.7470
  771SOL     MW 2274   2.288   1.935   4.545  0.6979 -0.0846  0.1369
  772SOL     OW 2275   0.896   1.316   4.406  0.3560 -0.2400  0.1351
  772SOL    HW1 2276   0.929   1.231   4.434  0.0572 -0.0102  1.1892
  772SOL    HW2 2277   0.802   1.303   4.395  0.6380 -0.6999 -2.1650
  772SOL     MW 2278   0.888   1.303   4.408  0.3538 -0.2695 -0.0243
  773SOL     OW 2279   3.766   5.679   0.073 -0.2124 -0.4045  0.4982
  773SOL    HW1 2280   3.696   5.671   0.139  1.3042  0.5096  2.2635
  773SOL    HW2 2281   3.841   5.712   0.122  0.8706  0.5996 -1.7811
  773SOL     MW 2282   3.767   5.682   0.088  0.1204 -0.1588  0.4324
  774SOL     OW 2283   4.729   2.358   4.591 -0.4502  0.0517  0.1380
  774SOL    HW1 2284   4.648   2.307   4.597 -0.1334 -0.3456  1.0446
  774SOL    HW2 2285   4.714   2.434   4.647 -0.6194  0.5647 -0.5905
  774SOL     MW 2286   4.716   2.361   4.599 -0.4311  0.0668  0.1612
  775SOL     OW 2287   3.423   5.332   5.012 -0.2376  0.2066  0.0593
  775SOL    HW1 2288   3.375   5.249   5.005 -1.0762  0.6565  0.3643
  775SOL    HW2 2289   3.414   5.372   4.926 -1.1636  0.6867  0.3682
  775SOL     MW 2290   3.416   5.326   5.000 -0.4637  0.3257  0.1378
  776SOL     OW 2291   5.277   0.743   1.263 -0.7706 -1.0995 -0.2924
  776SOL    HW1 2292   5.202   0.789   1.301 -1.0353 -1.3522 -0.5014
  776SOL    HW2 2293   5.295   0.671   1.323 -1.3141 -1.6165 -0.7407
  776SOL     MW 2294   5.270   0.740   1.275 -0.8740 -1.1980 -0.3766
  777SOL     OW 2295   1.098   0.852   1.236 -0.1528  0.4073 -0.3286
  777SOL    HW1 2296   1.090   0.812   1.323 -0.8950 -0.7068 -0.8827
  777SOL    HW2 2297   1.135   0.782   1.182  0.8432  1.2832 -0.7727
  777SOL     MW 2298   1.102   0.838   1.240 -0.1203  0.3769 -0.4563
  778SOL     OW 2299   3.370   0.570   1.706 -0.2215 -0.0794  0.0145
  778SOL    HW1 2300   3.383   0.603   1.795 -1.0162 -0.3766  0.2476
  778SOL    HW2 2301   3.387   0.646   1.650 -0.3914  0.2914  0.4578
  778SOL     MW 2302   3.374   0.584   1.710 -0.3448 -0.0700  0.1011
  779SOL     OW 2303   1.349   2.908   0.149 -0.4139 -0.2910  0.5091
  779SOL    HW1 2304   1.428   2.958   0.131 -0.0566 -0.8598  0.4763
  779SOL    HW2 2305   1.340   2.911   0.245 -0.7973  0.4363  0.4557
  779SOL     MW 2306   1.358   2.914   0.159 -0.4174 -0.2704  0.4981
  780SOL     OW 2307   5.772   2.613   3.461  0.6905 -0.2610  0.2362
  780SOL    HW1 2308   5.758   2.630   3.368  1.2564  1.8887  0.5221
  780SOL    HW2 2309   5.838   2.676   3.488  1.0665 -1.3397  1.9564
  780SOL     MW 2310   5.779   2.623   3.453  0.8111 -0.1240  0.4926
  781SOL     OW 2311   4.633   0.644   3.068 -0.1603  0.2143 -0.7765
  781SOL    HW1 2312   4.726   0.668   3.070 -0.5531  1.7721  0.4908
  781SOL    HW2 2313   4.587   0.728   3.073 -1.6078 -0.6592  1.6775
  781SOL     MW 2314   4.639   0.658   3.069 -0.3963  0.3019 -0.3002
  782SOL     OW 2315   4.885   0.733   3.036  0.1733  0.2166 -0.2467
  782SOL    HW1 2316   4.868   0.727   2.942  0.5425  0.0749 -0.3071
  782SOL    HW2 2317   4.902   0.826   3.052 -1.9044  0.5593  0.0388
  782SOL     MW 2318   4.885   0.744   3.026 -0.0453  0.2423 -0.2182
  783SOL     OW 2319   2.196   2.435   1.864  0.3741 -0.8518 -0.1941
  783SOL    HW1 2320   2.143   2.490   1.806  0.2391 -1.2730 -0.4731
  783SOL    HW2 2321   2.260   2.495   1.902  0.5321 -0.5921 -0.8671
  783SOL     MW 2322   2.197   2.450   1.861  0.3769 -0.8724 -0.3160
  784SOL     OW 2323   4.940   1.175   2.162 -0.5966 -0.3284  0.2703
  784SOL    HW1 2324   5.002   1.139   2.226  0.1063  1.4970  0.6520
  784SOL    HW2 2325   4.875   1.105   2.150 -0.1916 -1.0951  2.2288
  784SOL     MW 2326   4.940   1.161   2.169 -0.4549 -0.1928  0.5701
  785SOL     OW 2327   3.923   4.933   0.962 -0.3630 -0.1428 -0.6881
  785SOL    HW1 2328   3.976   4.986   0.902  0.2580  0.7484  0.6072
  785SOL    HW2 2329   3.911   4.990   1.039 -2.0117 -0.8762 -0.3987
  785SOL     MW 2330   3.928   4.947   0.964 -0.4947 -0.1221 -0.4852
  786SOL     OW 2331   5.645   5.082   3.805  0.4422  0.1650  0.4362
  786SOL    HW1 2332   5.686   5.025   3.741  0.5736  0.9040 -0.1411
  786SOL    HW2 2333   5.596   5.023   3.862 -1.4737 -0.3010 -1.6480
  786SOL     MW 2334   5.644   5.067   3.804  0.2131  0.1998  0.0954
  787SOL     OW 2335   0.193   2.784   2.530  0.2835  0.1939  0.2939
  787SOL    HW1 2336   0.199   2.853   2.596 -1.0493  0.5662  0.0413
  787SOL    HW2 2337   0.272   2.796   2.476  0.8241  0.5580  1.1599
  787SOL     MW 2338   0.204   2.795   2.531  0.1821  0.2880  0.3724
  788SOL     OW 2339   0.516   2.399   0.477 -0.2365  0.2538 -0.2963
  788SOL    HW1 2340   0.516   2.312   0.516 -0.9853 -0.0695 -0.9902
  788SOL    HW2 2341   0.605   2.412   0.446  0.0306 -0.0173  0.3506
  788SOL     MW 2342   0.527   2.390   0.478 -0.2981  0.1781 -0.3023
  789SOL     OW 2343   4.107   5.323   1.205 -0.1270  0.2113  0.1108
  789SOL    HW1 2344   4.168   5.286   1.142  1.0891  0.2650  1.2184
  789SOL    HW2 2345   4.146   5.304   1.290 -1.2443  0.9719  0.8202
  789SOL     MW 2346   4.119   5.316   1.208 -0.1140  0.3157  0.3434
  790SOL     OW 2347   0.249   0.757   0.605 -0.7515 -0.0049  0.3901
  790SOL    HW1 2348   0.164   0.800   0.610 -2.6876 -3.5896 -0.0208
  790SOL    HW2 2349   0.245   0.705   0.525  1.1292 -1.6872  1.3545
  790SOL     MW 2350   0.237   0.756   0.595 -0.7586 -0.6791  0.4610
  791SOL     OW 2351   2.108   0.806   2.291 -0.8072 -0.1610  0.3085
  791SOL    HW1 2352   2.157   0.875   2.247  0.7805 -1.2169  0.3711
  791SOL    HW2 2353   2.031   0.792   2.236 -1.2878  1.8290  0.4434
  791SOL     MW 2354   2.104   0.813   2.278 -0.6652 -0.0415  0.3335
  792SOL     OW 2355   3.844   4.940   0.535  0.4014 -0.5365  0.1585
  792SOL    HW1 2356   3.932   4.952   0.572  1.1222  1.2816 -2.0624
  792SOL    HW2 2357   3.858   4.888   0.457 -0.0020  2.5599 -2.0622
  792SOL     MW 2358   3.857   4.935   0.530  0.4423  0.0920 -0.4100
  793SOL     OW 2359   1.952   1.174   0.319  0.1050 -0.5121  0.4747
  793SOL    HW1 2360   1.906   1.130   0.391 -1.3612  1.6447  0.8781
  793SOL    HW2 2361   1.988   1.253   0.359  0.3279  0.0795 -0.8920
  793SOL     MW 2362   1.951   1.178   0.333 -0.0541 -0.1602  0.3513
  794SOL     OW 2363   2.561   1.721   1.829 -0.4329 -0.3419 -0.3017
  794SOL    HW1 2364   2.473   1.684   1.821 -1.0295  1.0877 -0.5386
  794SOL    HW2 2365   2.619   1.647   1.818 -1.6241 -1.3887  0.3373
  794SOL     MW 2366   2.557   1.707   1.827 -0.6616 -0.2929 -0.2502
  795SOL     OW 2367   0.255   2.093   5.028  0.0002  0.3824 -0.2362
  795SOL    HW1 2368   0.212   2.059   5.107 -0.5670 -0.7190 -1.0021
  795SOL    HW2 2369   0.189   2.148   4.986 -0.0772  0.0785 -0.5152
  795SOL     MW 2370   0.241   2.096   5.033 -0.0823  0.2024 -0.3700
  796SOL     OW 2371   5.787   5.541   3.903 -0.8173 -0.4981  0.0112
  796SOL    HW1 2372   5.860   5.580   3.855  0.6792 -0.5389  2.1810
  796SOL    HW2 2373   5.761   5.465   3.851  0.8382 -0.5990 -0.6940
  796SOL     MW 2374   5.793   5.536   3.890 -0.4139 -0.5159  0.1986
  797SOL     OW 2375   4.338   5.423   2.532 -0.4201  0.3365 -0.1739
  797SOL    HW1 2376   4.273   5.354   2.545  0.0485 -0.0439  0.1642
  797SOL    HW2 2377   4.302   5.499   2.578  1.4577 -1.1242  3.9829
  797SOL     MW 2378   4.325   5.424   2.539 -0.1197  0.1006  0.4013
  798SOL     OW 2379   1.267   2.186   3.071 -0.1085  0.1586  0.6846
  798SOL    HW1 2380   1.225   2.157   2.990  2.1420 -1.0798 -0.0916
  798SOL    HW2 2381   1.229   2.130   3.139 -0.3899 -0.3228  0.1349
  798SOL     MW 2382   1.257   2.175   3.070  0.1436 -0.0615  0.5150
  799SOL     OW 2383   1.616   4.544   5.341  0.2759  0.1519  0.3858
  799SOL    HW1 2384   1.703   4.535   5.303  0.0783  0.8021 -0.2392
  799SOL    HW2 2385   1.625   4.614   5.405 -0.5186  2.5920 -2.0422
  799SOL     MW 2386   1.628   4.552   5.344  0.1489  0.5479 -0.0052
  800SOL     OW 2387   5.887   5.339   0.634 -0.2764 -0.1592 -0.1411
  800SOL    HW1 2388   5.799   5.348   0.672 -0.6393 -2.5018 -0.3820
  800SOL    HW2 2389   5.945   5.334   0.710 -0.7849 -2.6185  0.1436
  800SOL     MW 2390   5.883   5.340   0.649 -0.3881 -0.7739 -0.1355
  801SOL     OW 2391   3.586   5.041   1.487  0.8257  0.3648  0.3587
  801SOL    HW1 2392   3.661   5.045   1.546  1.9984 -0.7630 -1.0428
  801SOL    HW2 2393   3.619   4.999   1.408 -1.0065  0.8587 -0.6992
  801SOL     MW 2394   3.599   5.036   1.484  0.7412  0.2837  0.0439
  802SOL     OW 2395   4.095   4.459   4.723  0.2728 -0.2407 -0.6504
  802SOL    HW1 2396   4.117   4.552   4.735 -0.0325 -0.0333 -1.6754
  802SOL    HW2 2397   4.012   4.460   4.675 -0.5900 -1.0382  0.8001
  802SOL     MW 2398   4.088   4.471   4.718  0.1230 -0.3166 -0.5960
  803SOL     OW 2399   3.211   1.541   1.984  0.3127  0.3970 -0.2619
  803SOL    HW1 2400   3.185   1.554   1.892 -0.9580  0.2150  0.0721
  803SOL    HW2 2401   3.257   1.457   1.984 -1.6304 -0.6842 -0.3472
  803SOL     MW 2402   3.214   1.532   1.972 -0.0987  0.2353 -0.2301
  804SOL     OW 2403   4.001   2.863   1.486 -0.1808 -0.7283  0.4844
  804SOL    HW1 2404   4.046   2.947   1.477  0.1254 -0.7592  1.6291
  804SOL    HW2 2405   3.910   2.882   1.462 -0.0722 -0.1227  0.5459
  804SOL     MW 2406   3.995   2.876   1.482 -0.1271 -0.6547  0.6387
  805SOL     OW 2407   0.197   4.745   4.171 -0.0113  0.1395 -0.3037
  805SOL    HW1 2408   0.169   4.670   4.224  1.1155  0.1603  0.3417
  805SOL    HW2 2409   0.242   4.705   4.096  0.3205  0.1494 -0.1141
  805SOL     MW 2410   0.200   4.730   4.169  0.1755  0.1440 -0.1969
  806SOL     OW 2411   0.238   5.128   0.891 -0.4429 -0.5693 -0.7286
  806SOL    HW1 2412   0.237   5.104   0.984 -0.2557  1.6740 -0.1101
  806SOL    HW2 2413   0.327   5.158   0.875 -0.9611  0.7871 -1.1470
  806SOL     MW 2414   0.249   5.129   0.901 -0.4853 -0.1087 -0.7030
  807SOL     OW 2415   3.995   0.537   4.512 -0.6268  0.0953  0.3880
  807SOL    HW1 2416   4.078   0.572   4.545 -0.5452  1.1403 -0.8947
  807SOL    HW2 2417   3.948   0.613   4.480 -1.0060 -0.8017 -1.2389
  807SOL     MW 2418   4.000   0.551   4.512 -0.6647  0.1143  0.0157
  808SOL     OW 2419   5.578   4.352   3.551  0.1289  0.3172  0.0653
  808SOL    HW1 2420   5.656   4.357   3.606 -0.6821  2.4259  1.1117
  808SOL    HW2 2421   5.523   4.286   3.592  1.2755 -1.0383 -0.5665
  808SOL     MW 2422   5.580   4.344   3.563  0.1717  0.4134  0.1183
  809SOL     OW 2423   5.616   1.079   5.692  0.1121  0.2487  0.5391
  809SOL    HW1 2424   5.678   1.007   5.691 -1.1888 -1.0026  3.4228
  809SOL    HW2 2425   5.542   1.049   5.640 -0.5589 -0.6763  1.9898
  809SOL     MW 2426   5.614   1.066   5.686 -0.1411 -0.0299  1.0939
  810SOL     OW 2427   5.759   1.470   5.782 -0.8254  0.1853 -0.2764
  810SOL    HW1 2428   5.664   1.460   5.772 -0.9170  0.5693  0.2107
  810SOL    HW2 2429   5.794   1.454   5.694 -1.3532  0.2073 -0.4902
  810SOL     MW 2430   5.751   1.466   5.769 -0.9050  0.2372 -0.2413
  811SOL     OW 2431   4.368   5.525   4.527 -0.5432 -0.6130  0.0348
  811SOL    HW1 2432   4.344   5.540   4.436  1.0506  2.9271  0.1259
  811SOL    HW2 2433   4.462   5.506   4.525  0.0223  1.8495  1.0889
  811SOL     MW 2434   4.377   5.524   4.515 -0.2670  0.1559  0.1817
  812SOL     OW 2435   4.810   0.853   4.843  0.5645  0.1242  0.3990
  812SOL    HW1 2436   4.857   0.927   4.805  2.4222 -0.8174  0.8227
  812SOL    HW2 2437   4.867   0.778   4.828 -1.1500 -1.1877  0.2573
  812SOL     MW 2438   4.823   0.853   4.836  0.5832 -0.1643  0.4349
  813SOL     OW 2439   2.084   1.586   3.780  0.6819 -0.0244 -0.2943
  813SOL    HW1 2440   2.088   1.496   3.749  3.3211  1.0884 -3.3505
  813SOL    HW2 2441   2.041   1.634   3.709  1.0814  1.4831  0.4689
  813SOL     MW 2442   2.079   1.580   3.767  1.0710  0.3109 -0.5877
  814SOL     OW 2443   4.435   0.445   3.139 -0.0893  0.2121  0.3691
  814SOL    HW1 2444   4.438   0.350   3.152  0.7432 -0.0283 -1.3966
  814SOL    HW2 2445   4.520   0.466   3.101 -0.5963  1.5504 -0.0382
  814SOL     MW 2446   4.447   0.435   3.136 -0.0477  0.3527  0.0908
  815SOL     OW 2447   3.299   5.643   3.965  0.8197 -0.0380  0.0325
  815SOL    HW1 2448   3.307   5.727   3.921  2.3615 -0.3545 -0.3266
  815SOL    HW2 2449   3.270   5.664   4.053 -1.4879  0.6681 -0.8656
  815SOL     MW 2450   3.296   5.656   3.971  0.7217  0.0124 -0.1283
  816SOL     OW 2451   1.944   5.827   5.287  0.0233 -0.2364 -0.7274
  816SOL    HW1 2452   1.972   5.859   5.201 -0.8588 -0.8010 -1.2265
  816SOL    HW2 2453   1.923   5.735   5.274  1.4412 -0.7487  0.4642
  816SOL     MW 2454   1.945   5.820   5.274  0.0918 -0.3738 -0.6394
  817SOL     OW 2455   2.987   2.274   2.603  0.2903  0.7531  0.8358
  817SOL    HW1 2456   2.954   2.336   2.668 -0.2999 -0.4659  1.7172
  817SOL    HW2 2457   3.057   2.226   2.647  1.4007  1.4460 -0.1511
  817SOL     MW 2458   2.992   2.275   2.617  0.3567  0.6857  0.8223
  818SOL     OW 2459   0.955   1.013   4.364  0.5377  0.7282 -0.6067
  818SOL    HW1 2460   0.987   1.009   4.454 -0.9817  0.0404 -0.0679
  818SOL    HW2 2461   0.927   0.924   4.344 -0.8373  1.2494 -1.0990
  818SOL     MW 2462   0.955   1.001   4.373  0.1671  0.7068 -0.6003
  819SOL     OW 2463   0.032   4.813   4.753  0.0320 -0.6612 -0.1805
  819SOL    HW1 2464   0.076   4.801   4.837  0.9480  1.8001 -0.2593
  819SOL    HW2 2465   0.090   4.772   4.689  0.5115 -0.4635  0.1240
  819SOL     MW 2466   0.045   4.807   4.756  0.2107 -0.3209 -0.1521
  820SOL     OW 2467   1.380   5.730   2.259  0.1684 -0.4655  0.0865
  820SOL    HW1 2468   1.463   5.771   2.283  0.0787 -0.8218  1.0519
  820SOL    HW2 2469   1.328   5.734   2.339 -1.4238  1.3757 -1.0049
  820SOL     MW 2470   1.384   5.736   2.273 -0.0470 -0.2756  0.0701
  821SOL     OW 2471   4.841   2.305   4.180  0.1609  1.0583  0.3719
  821SOL    HW1 2472   4.863   2.229   4.234 -0.7920 -0.6201 -1.5264
  821SOL    HW2 2473   4.919   2.360   4.182  2.3977 -1.9357 -1.4909
  821SOL     MW 2474   4.854   2.302   4.187  0.3252  0.4601 -0.1092
  822SOL     OW 2475   5.074   1.365   3.915 -0.6349 -0.1869  0.4328
  822SOL    HW1 2476   5.009   1.308   3.955 -0.6363 -0.4439  0.0654
  822SOL    HW2 2477   5.158   1.329   3.944 -0.6536  0.1645  0.9338
  822SOL     MW 2478   5.077   1.353   3.924 -0.6375 -0.1748  0.4497
  823SOL     OW 2479   0.076   4.170   3.101 -0.0915  0.3241 -0.5434
  823SOL    HW1 2480   0.064   4.264   3.090  0.3898  0.1931 -2.2384
  823SOL    HW2 2481   0.054   4.132   3.016 -0.6682 -1.1430  0.2260
  823SOL     MW 2482   0.072   4.177   3.089 -0.1037  0.1197 -0.6621
  824SOL     OW 2483   5.388   2.197   0.985  0.5640  0.3142  0.2371
  824SOL    HW1 2484   5.342   2.276   1.013  0.5020  0.0250  0.9529
  824SOL    HW2 2485   5.336   2.125   1.020  2.3840  0.0019  2.4215
  824SOL     MW 2486   5.375   2.198   0.993  0.7892  0.2372  0.6084
  825SOL     OW 2487   0.632   4.820   2.559 -0.1254 -0.2847 -0.3939
  825SOL    HW1 2488   0.608   4.871   2.481 -0.1461 -0.9311 -0.8161
  825SOL    HW2 2489   0.597   4.733   2.542  0.3864 -0.5834  0.0790
  825SOL     MW 2490   0.625   4.816   2.547 -0.0625 -0.4058 -0.3874
  826SOL     OW 2491   2.014   3.271   1.933  0.5119 -0.2808  0.5891
  826SOL    HW1 2492   2.033   3.365   1.935 -0.6105 -0.0406  0.3995
  826SOL    HW2 2493   2.041   3.243   1.845  3.0773 -0.6380  1.4543
  826SOL     MW 2494   2.020   3.280   1.922  0.6967 -0.2959  0.6757
  827SOL     OW 2495   5.064   1.254   3.624  0.2743 -0.3156  0.5675
  827SOL    HW1 2496   5.034   1.288   3.708 -0.8747 -0.4805  0.2267
  827SOL    HW2 2497   5.023   1.168   3.616  1.0283 -0.6499  0.2059
  827SOL     MW 2498   5.055   1.247   3.634  0.2232 -0.3796  0.4776
  828SOL     OW 2499   5.296   1.342   3.476  0.1730 -0.0100 -0.1684
  828SOL    HW1 2500   5.269   1.370   3.389  1.5841 -0.0511 -0.6240
  828SOL    HW2 2501   5.216   1.306   3.515  0.1039 -2.5815 -2.4693
  828SOL     MW 2502   5.282   1.341   3.470  0.3452 -0.3444 -0.5217
  829SOL     OW 2503   2.638   0.881   3.170  0.0589 -0.1130  0.9739
  829SOL    HW1 2504   2.621   0.950   3.106 -0.7814 -0.7826  0.4548
  829SOL    HW2 2505   2.608   0.916   3.253 -1.4508 -0.2918  0.5094
  829SOL     MW 2506   2.632   0.894   3.172 -0.2418 -0.2216  0.8481
  830SOL     OW 2507   4.942   0.660   2.100  0.7264  0.0566  0.2547
  830SOL    HW1 2508   4.956   0.573   2.061 -2.3993 -0.5483  0.3891
  830SOL    HW2 2509   4.977   0.721   2.035 -2.6515 -1.0399 -2.7806
  830SOL     MW 2510   4.948   0.657   2.086 -0.1059 -0.1612 -0.1168
  831SOL     OW 2511   1.150   4.735   2.724 -0.1856 -0.0954  0.3119
  831SOL    HW1 2512   1.184   4.782   2.799 -0.4993 -1.0782  1.0780
  831SOL    HW2 2513   1.167   4.643   2.743 -1.1073 -0.4263 -0.3823
  831SOL     MW 2514   1.156   4.729   2.736 -0.3438 -0.2642  0.3211
  832SOL     OW 2515   0.036   1.662   0.985 -0.3519 -0.1703 -0.0398
  832SOL    HW1 2516   0.123   1.626   0.966 -1.2094 -0.5788 -3.4996
  832SOL    HW2 2517   0.053   1.752   1.013  1.2367 -0.4034 -0.2003
  832SOL     MW 2518   0.049   1.669   0.986 -0.2583 -0.2522 -0.5033
  833SOL     OW 2519   0.718   2.228   5.578 -0.5581  0.5879 -0.4864
  833SOL    HW1 2520   0.645   2.240   5.638 -0.0142  2.5398 -0.1962
  833SOL    HW2 2521   0.793   2.207   5.635 -0.8275 -1.2870 -0.7730
  833SOL     MW 2522   0.719   2.227   5.593 -0.5230  0.5977 -0.4864
  834SOL     OW 2523   0.229   2.111   2.373  1.0691  0.0361 -0.0019
  834SOL    HW1 2524   0.229   2.205   2.390 -1.7940  0.3218 -1.2727
  834SOL    HW2 2525   0.137   2.085   2.380  1.5403 -2.2948 -1.6973
  834SOL     MW 2526   0.217   2.119   2.376  0.7629 -0.2258 -0.3817
  835SOL     OW 2527   2.676   4.153   5.031 -0.0899  0.3689 -0.5503
  835SOL    HW1 2528   2.608   4.087   5.046 -0.4049  0.7816 -0.1698
  835SOL    HW2 2529   2.756   4.102   5.019 -0.6352 -0.1718 -2.0119
  835SOL     MW 2530   2.677   4.138   5.032 -0.2000  0.3529 -0.6890
  836SOL     OW 2531   4.192   4.439   2.298  0.9493 -0.4765  0.2319
  836SOL    HW1 2532   4.153   4.359   2.264 -0.3032 -0.0371  0.6033
  836SOL    HW2 2533   4.157   4.508   2.242 -0.1895  0.1253  1.6614
  836SOL     MW 2534   4.183   4.438   2.286  0.6433 -0.3433  0.4623
  837SOL     OW 2535   0.454   0.336   1.943  0.1158  0.4671  0.2235
  837SOL    HW1 2536   0.473   0.301   2.029  0.9286 -1.4974 -0.7359
  837SOL    HW2 2537   0.358   0.337   1.937  0.0696 -2.4831 -0.0689
  837SOL     MW 2538   0.444   0.332   1.953  0.2140 -0.1620  0.0633
  838SOL     OW 2539   0.473   3.910   0.276  0.0403  0.7292  0.6927
  838SOL    HW1 2540   0.467   3.992   0.228  0.5263  1.2636  1.5455
  838SOL    HW2 2541   0.567   3.890   0.278  0.1449  1.3647  2.5131
  838SOL     MW 2542   0.484   3.918   0.270  0.1159  0.8788  1.0349
  839SOL     OW 2543   4.294   1.199   3.798 -0.0650  0.1023 -0.4086
  839SOL    HW1 2544   4.344   1.230   3.873 -1.2451 -2.7735  1.6875
  839SOL    HW2 2545   4.203   1.201   3.828 -0.6997  0.1994 -2.2661
  839SOL     MW 2546   4.289   1.203   3.812 -0.2971 -0.2533 -0.3784
  840SOL     OW 2547   5.670   5.338   1.597 -0.2012  0.1039  0.1067
  840SOL    HW1 2548   5.579   5.310   1.582 -0.2044  0.3761 -0.3730
  840SOL    HW2 2549   5.675   5.352   1.691 -0.0221 -2.1940  0.4794
  840SOL     MW 2550   5.659   5.336   1.607 -0.1788 -0.1554  0.0930
  841SOL     OW 2551   0.771   0.847   5.274  0.5463  0.2946 -0.3161
  841SOL    HW1 2552   0.793   0.775   5.215 -0.3907 -0.3919  0.1736
  841SOL    HW2 2553   0.679   0.833   5.296  1.0475  0.2166  1.7749
  841SOL     MW 2554   0.762   0.836   5.269  0.4905  0.1967  0.0143
  842SOL     OW 2555   3.635   1.747   0.235 -0.1638 -0.1655 -0.3457
  842SOL    HW1 2556   3.604   1.837   0.245  0.4659  0.1766 -1.4439
  842SOL    HW2 2557   3.560   1.699   0.201 -0.1298  0.2159 -0.9728
  842SOL     MW 2558   3.621   1.752   0.232 -0.0789 -0.0728 -0.5666
  843SOL     OW 2559   4.882   4.055   3.513  0.5675 -0.3883 -0.1273
  843SOL    HW1 2560   4.864   4.080   3.423  0.7395 -0.0266 -0.0612
  843SOL    HW2 2561   4.796   4.036   3.550  0.6159 -1.8597 -0.7539
  843SOL     MW 2562   4.869   4.056   3.507  0.5956 -0.5302 -0.1988
  844SOL     OW 2563   2.732   3.822   4.486 -0.2178  0.1753  0.3072
  844SOL    HW1 2564   2.806   3.764   4.466  0.6597  0.7850  1.6919
  844SOL    HW2 2565   2.740   3.892   4.421 -0.6110 -0.6587 -0.6491
  844SOL     MW 2566   2.743   3.824   4.475 -0.1557  0.1466  0.3619
  845SOL     OW 2567   5.225   5.123   4.104 -0.5183 -0.5421  0.5415
  845SOL    HW1 2568   5.264   5.057   4.161 -0.6812  0.6322  2.0737
  845SOL    HW2 2569   5.181   5.074   4.035  0.7274 -1.9738  0.7514
  845SOL     MW 2570   5.224   5.109   4.103 -0.3791 -0.5755  0.7639
  846SOL     OW 2571   4.761   3.706   1.267  0.5963  0.3065  0.2300
  846SOL    HW1 2572   4.797   3.622   1.240 -1.3702 -0.9113  1.3234
  846SOL    HW2 2573   4.812   3.730   1.344 -0.5564 -1.1567  1.4656
  846SOL     MW 2574   4.772   3.698   1.273  0.1969 -0.0367  0.5281
  847SOL     OW 2575   4.362   3.130   0.196 -0.1532  0.0507 -0.0774
  847SOL    HW1 2576   4.380   3.160   0.285 -0.8938  2.9004 -0.8281
  847SOL    HW2 2577   4.441   3.151   0.147 -0.3798  0.0577 -0.4470
  847SOL     MW 2578   4.374   3.136   0.201 -0.2775  0.4163 -0.2208
  848SOL     OW 2579   5.744   4.223   0.865 -0.2053  0.5636  0.1749
  848SOL    HW1 2580   5.672   4.244   0.924  0.9177 -0.3347  1.9481
  848SOL    HW2 2581   5.792   4.153   0.911  1.8768  1.2718 -0.8491
  848SOL     MW 2582   5.741   4.217   0.879  0.2050  0.5393  0.2708
  849SOL     OW 2583   2.641   1.147   2.268  0.1375 -0.1394  0.1763
  849SOL    HW1 2584   2.714   1.164   2.327  0.7453  0.1991 -0.6484
  849SOL    HW2 2585   2.675   1.169   2.181 -0.8370 -0.3097 -0.2625
  849SOL     MW 2586   2.654   1.152   2.264  0.0906 -0.1178  0.0143
  850SOL     OW 2587   2.356   0.904   5.052 -0.2675  0.0630  0.0827
  850SOL    HW1 2588   2.270   0.874   5.021 -0.2290 -0.4918  0.4893
  850SOL    HW2 2589   2.418   0.868   4.989 -0.1737 -1.2174  0.8870
  850SOL     MW 2590   2.353   0.895   5.040 -0.2506 -0.1720  0.2375
  851SOL     OW 2591   5.516   3.770   1.541 -0.1676  0.6493  0.0597
  851SOL    HW1 2592   5.488   3.782   1.632  1.8666 -0.8798  0.9188
  851SOL    HW2 2593   5.498   3.678   1.522  1.0359  0.5219 -0.5045
  851SOL     MW 2594   5.510   3.760   1.550  0.2465  0.4375  0.0975
  852SOL     OW 2595   2.470   3.994   5.806 -0.4794 -0.2322  0.2035
  852SOL    HW1 2596   2.440   4.079   5.840  2.1581 -0.0482  2.2834
  852SOL    HW2 2597   2.394   3.958   5.760 -1.7145  3.1783 -0.5987
  852SOL     MW 2598   2.456   4.001   5.805 -0.2999  0.2279  0.3672
  853SOL     OW 2599   3.789   4.258   5.195 -0.2346 -0.1226  0.1403
  853SOL    HW1 2600   3.719   4.193   5.187  0.1603 -0.2931 -2.2180
  853SOL    HW2 2601   3.801   4.293   5.107  0.8255  1.8511  1.0170
  853SOL     MW 2602   3.782   4.254   5.183 -0.0484  0.1082 -0.0491
  854SOL     OW 2603   1.233   0.906   0.522  0.3595  0.2531  0.1066
  854SOL    HW1 2604   1.291   0.982   0.510  1.5506 -0.7154 -0.3228
  854SOL    HW2 2605   1.292   0.834   0.542 -0.7020 -0.7811 -0.4424
  854SOL     MW 2606   1.248   0.907   0.523  0.3761 -0.0033 -0.0187
  855SOL     OW 2607   5.712   2.581   2.565 -0.1582  0.3193 -0.3125
  855SOL    HW1 2608   5.806   2.564   2.562 -0.0210  0.6618  1.4500
  855SOL    HW2 2609   5.681   2.532   2.641 -1.4519  0.0297 -0.9995
  855SOL     MW 2610   5.720   2.572   2.574 -0.3071  0.3264 -0.1748
  856SOL     OW 2611   5.696   1.415   0.485 -0.2181 -0.2935  0.3315
  856SOL    HW1 2612   5.658   1.445   0.402 -0.0765  0.5818  0.5838
  856SOL    HW2 2613   5.736   1.493   0.523  0.0626 -0.7789  1.0398
  856SOL     MW 2614   5.696   1.429   0.479 -0.1640 -0.2438  0.4545
  857SOL     OW 2615   4.413   4.411   1.759  0.1680  0.1585 -0.1824
  857SOL    HW1 2616   4.344   4.439   1.819  0.6333 -1.2215  1.0305
  857SOL    HW2 2617   4.378   4.427   1.671 -1.1049  0.8226  0.4498
  857SOL     MW 2618   4.400   4.417   1.755  0.0648  0.0668  0.0539
  858SOL     OW 2619   2.912   3.972   1.634 -0.0256 -0.2660  0.2790
  858SOL    HW1 2620   2.929   4.060   1.601  0.3238 -0.0974  0.9082
  858SOL    HW2 2621   2.906   3.918   1.555 -2.1333  0.6293 -0.2306
  858SOL     MW 2622   2.913   3.977   1.620 -0.2506 -0.1295  0.2942
  859SOL     OW 2623   5.807   4.647   4.692 -0.0133 -0.4696 -0.8886
  859SOL    HW1 2624   5.868   4.714   4.724  0.5104 -0.6446 -1.5067
  859SOL    HW2 2625   5.797   4.667   4.599 -1.8413  0.2808 -0.5430
  859SOL     MW 2626   5.814   4.658   4.685 -0.1802 -0.3953 -0.9236
  860SOL     OW 2627   3.804   2.233   1.343 -0.1369  0.8361  0.2936
  860SOL    HW1 2628   3.856   2.302   1.383  0.8056 -0.4156  1.2396
  860SOL    HW2 2629   3.727   2.225   1.399  0.2162  0.4658  0.7296
  860SOL     MW 2630   3.800   2.241   1.355  0.0288  0.6285  0.4705
  861SOL     OW 2631   1.550   4.266   1.379 -0.1134  0.0360 -0.0405
  861SOL    HW1 2632   1.477   4.235   1.432 -1.0664 -0.5912 -1.7014
  861SOL    HW2 2633   1.608   4.190   1.371 -0.2424 -0.0273 -0.3656
  861SOL     MW 2634   1.548   4.252   1.385 -0.2518 -0.0525 -0.2947
  862SOL     OW 2635   2.222   2.862   5.495  0.1018 -0.0855  0.0937
  862SOL    HW1 2636   2.253   2.938   5.542 -0.5726  1.5988 -2.1010
  862SOL    HW2 2637   2.127   2.875   5.486  0.1815 -0.4343 -1.5522
  862SOL     MW 2638   2.213   2.873   5.500  0.0260  0.0858 -0.3982
  863SOL     OW 2639   5.012   1.449   2.075 -0.5086  0.0248 -0.0596
  863SOL    HW1 2640   5.009   1.353   2.077 -1.5988  0.0598  0.6669
  863SOL    HW2 2641   5.105   1.470   2.082 -0.4415 -0.9368  2.3686
  863SOL     MW 2642   5.023   1.439   2.076 -0.6399 -0.0937  0.3440
  864SOL     OW 2643   1.079   5.832   4.503  0.2074  0.1993  0.2889
  864SOL    HW1 2644   1.167   5.832   4.542  0.7377  2.1519 -0.8349
  864SOL    HW2 2645   1.088   5.776   4.426 -0.2866 -1.8903  1.7048
  864SOL     MW 2646   1.092   5.825   4.498  0.2121  0.1817  0.3262
  865SOL     OW 2647   4.991   5.547   3.096  0.9469 -0.2483  0.2148
  865SOL    HW1 2648   5.070   5.503   3.065  0.5795 -0.8129  0.0648
  865SOL    HW2 2649   4.926   5.477   3.103  1.0696 -0.1710  2.4629
  865SOL     MW 2650   4.992   5.532   3.093  0.9151 -0.3109  0.4833
  866SOL     OW 2651   4.798   0.598   2.330  0.2597  0.0000  0.0807
  866SOL    HW1 2652   4.812   0.652   2.252  0.4923 -1.7924 -1.1414
  866SOL    HW2 2653   4.709   0.565   2.321  0.7578 -1.3208 -0.1317
  866SOL     MW 2654   4.788   0.601   2.319  0.3529 -0.3985 -0.1028
  867SOL     OW 2655   2.241   0.569   2.182  0.3496 -0.2208  0.1539
  867SOL    HW1 2656   2.163   0.574   2.127 -0.2093  0.4312  1.0085
  867SOL    HW2 2657   2.234   0.644   2.241  0.0218 -1.9745  2.3565
  867SOL     MW 2658   2.230   0.579   2.182  0.2358 -0.3618  0.5450
  868SOL     OW 2659   2.917   2.061   4.857  0.0670 -0.3558  0.0780
  868SOL    HW1 2660   2.837   2.055   4.909  0.8640 -1.2958  1.2317
  868SOL    HW2 2661   2.984   2.090   4.920 -0.1204  4.3815 -1.6673
  868SOL     MW 2662   2.915   2.064   4.872  0.1454  0.1302  0.0024
  869SOL     OW 2663   5.764   0.816   4.899  0.1891  0.0844  0.1540
  869SOL    HW1 2664   5.841   0.783   4.945  1.5289  0.7496 -1.6031
  869SOL    HW2 2665   5.755   0.907   4.929 -0.0073 -0.0383  0.4708
  869SOL     MW 2666   5.773   0.824   4.909  0.3352  0.1538 -0.0305
  870SOL     OW 2667   4.031   3.892   2.180 -0.2127 -0.0466 -0.3217
  870SOL    HW1 2668   4.072   3.900   2.094  0.4278  2.5543  0.1904
  870SOL    HW2 2669   3.941   3.923   2.167 -0.4150 -0.6003 -0.2604
  870SOL     MW 2670   4.025   3.897   2.167 -0.1569  0.2155 -0.2482
  871SOL     OW 2671   3.301   1.271   3.721 -0.1123 -0.4248 -0.3874
  871SOL    HW1 2672   3.272   1.233   3.804  0.6775  1.6934  0.9011
  871SOL    HW2 2673   3.394   1.253   3.718  0.3859  1.8234  0.5133
  871SOL     MW 2674   3.309   1.264   3.731  0.0527  0.1341 -0.1073
  872SOL     OW 2675   5.603   0.326   4.436  0.4504  0.0306  0.1997
  872SOL    HW1 2676   5.594   0.419   4.456  2.4872  0.3919 -0.4314
  872SOL    HW2 2677   5.515   0.290   4.447 -0.0078  1.6828  2.1690
  872SOL     MW 2678   5.591   0.333   4.440  0.6523  0.2883  0.3710
  873SOL     OW 2679   2.349   3.739   4.209 -0.0015 -0.1399 -0.1536
  873SOL    HW1 2680   2.259   3.704   4.213  0.0618 -0.3779 -0.6364
  873SOL    HW2 2681   2.399   3.681   4.266 -0.2475  0.2823  0.4853
  873SOL     MW 2682   2.344   3.727   4.217 -0.0250 -0.1166 -0.1335
  874SOL     OW 2683   1.374   5.438   4.255 -0.4684  0.7267  0.0527
  874SOL    HW1 2684   1.382   5.521   4.302  0.3539  0.4994  0.3178
  874SOL    HW2 2685   1.292   5.446   4.206 -0.5184  1.5940  0.2738
  874SOL     MW 2686   1.364   5.450   4.255 -0.3695  0.8082  0.1149
  875SOL     OW 2687   1.540   3.425   1.450 -0.7044  0.2289  0.1596
  875SOL    HW1 2688   1.622   3.469   1.430  1.0806 -3.3205 -0.6406
  875SOL    HW2 2689   1.517   3.378   1.370 -2.0248 -1.0550  1.2643
  875SOL     MW 2690   1.547   3.425   1.438 -0.6449 -0.3896  0.1985
  876SOL     OW 2691   2.428   4.417   1.215 -0.3614  0.1087 -0.6411
  876SOL    HW1 2692   2.342   4.420   1.257 -1.4929  0.1292 -2.8505
  876SOL    HW2 2693   2.483   4.368   1.275 -2.3139 -1.1561  0.1635
  876SOL     MW 2694   2.424   4.411   1.228 -0.7565 -0.0505 -0.8209
  877SOL     OW 2695   5.246   1.656   4.695 -0.5744  0.1094  0.0754
  877SOL    HW1 2696   5.209   1.648   4.783 -1.7760  0.4782 -0.3860
  877SOL    HW2 2697   5.322   1.712   4.706 -2.1798  2.2674  0.4948
  877SOL     MW 2698   5.251   1.662   4.707 -0.9341  0.4328  0.0701
  878SOL     OW 2699   3.221   1.593   4.556  0.0586  0.2545  0.5733
  878SOL    HW1 2700   3.172   1.532   4.610  2.1138 -2.0250 -0.0692
  878SOL    HW2 2701   3.178   1.588   4.470  2.4797 -3.2647 -0.5637
  878SOL     MW 2702   3.209   1.585   4.552  0.6318 -0.4878  0.3452
  879SOL     OW 2703   4.911   0.865   4.419  0.3956  0.0177  0.4349
  879SOL    HW1 2704   4.941   0.925   4.487 -1.8146 -0.8358  2.2056
  879SOL    HW2 2705   4.976   0.794   4.419  0.1872 -0.1801  1.9524
  879SOL     MW 2706   4.923   0.863   4.427  0.0854 -0.1169  0.8559
  880SOL     OW 2707   4.176   1.670   1.075  0.3484 -0.0208  0.5538
  880SOL    HW1 2708   4.264   1.662   1.039 -0.6280  1.4474 -2.3349
  880SOL    HW2 2709   4.168   1.762   1.100 -0.8481  0.2199 -0.6332
  880SOL     MW 2710   4.186   1.680   1.074  0.0701  0.1979  0.0319
  881SOL     OW 2711   0.196   5.078   2.176 -0.1038  0.5163 -0.7400
  881SOL    HW1 2712   0.188   5.169   2.146  0.0476  0.9947  0.6534
  881SOL    HW2 2713   0.120   5.063   2.231 -1.3156 -0.9297 -2.7064
  881SOL     MW 2714   0.185   5.088   2.179 -0.2396  0.3920 -0.8135
  882SOL     OW 2715   3.304   2.153   3.585 -0.2851 -0.3091 -0.1878
  882SOL    HW1 2716   3.375   2.217   3.583  2.5716 -3.2431  1.5504
  882SOL    HW2 2717   3.309   2.109   3.499 -1.3034  0.7720 -0.8157
  882SOL     MW 2718   3.314   2.155   3.574 -0.0498 -0.5465 -0.0458
  883SOL     OW 2719   3.998   4.725   1.354 -0.1357  0.6341  0.8152
  883SOL    HW1 2720   4.017   4.710   1.262 -0.1563 -1.2354  1.0967
  883SOL    HW2 2721   4.084   4.741   1.394 -0.1330  1.4956  0.4866
  883SOL     MW 2722   4.012   4.725   1.347 -0.1378  0.5050  0.8093
  884SOL     OW 2723   3.407   4.238   5.376  0.0413  0.0053 -0.1647
  884SOL    HW1 2724   3.318   4.239   5.341 -0.2628  0.5073  0.6039
  884SOL    HW2 2725   3.455   4.178   5.320 -0.5538  0.4644 -1.1659
  884SOL     MW 2726   3.402   4.231   5.365 -0.0741  0.1283 -0.1941
  885SOL     OW 2727   2.088   2.814   0.599  0.5705 -0.0436 -0.2280
  885SOL    HW1 2728   2.089   2.741   0.660 -0.2270 -0.2517 -0.4606
  885SOL    HW2 2729   2.062   2.890   0.652 -1.3559 -0.4595 -0.5641
  885SOL     MW 2730   2.085   2.815   0.613  0.2217 -0.1233 -0.3008
  886SOL     OW 2731   3.114   2.392   4.851  0.2172  0.0097 -0.2242
  886SOL    HW1 2732   3.115   2.459   4.783 -0.7956 -1.6243 -1.9402
  886SOL    HW2 2733   3.166   2.320   4.814 -0.4491 -0.9422  0.6647
  886SOL     MW 2734   3.121   2.391   4.837  0.0021 -0.3214 -0.3304
  887SOL     OW 2735   3.786   1.083   2.933  0.2486  0.5370  0.2988
  887SOL    HW1 2736   3.784   1.054   2.842 -1.5883  0.1076  0.4641
  887SOL    HW2 2737   3.771   1.177   2.928 -2.6752  0.1309  0.2846
  887SOL     MW 2738   3.784   1.091   2.921 -0.3610  0.4301  0.3181
  888SOL     OW 2739   1.448   5.329   1.185  0.3624 -0.2787 -0.4902
  888SOL    HW1 2740   1.445   5.406   1.129  0.3255 -0.7401 -1.1322
  888SOL    HW2 2741   1.526   5.281   1.155  1.5726  0.5475  1.2898
  888SOL     MW 2742   1.458   5.333   1.174  0.5126 -0.2322 -0.3444
  889SOL     OW 2743   1.306   5.925   3.633  0.7169  0.3437  0.5914
  889SOL    HW1 2744   1.211   5.921   3.634  0.7555 -0.7176  0.5901
  889SOL    HW2 2745   1.332   5.904   3.723  0.8966  2.5658  1.0970
  889SOL     MW 2746   1.297   5.922   3.645  0.7447  0.4921  0.6559
  890SOL     OW 2747   5.332   3.687   3.389  0.0066 -0.3913  0.4592
  890SOL    HW1 2748   5.332   3.740   3.309 -1.3173  0.7098  1.1816
  890SOL    HW2 2749   5.243   3.651   3.394  0.0587 -0.3802  1.4905
  890SOL     MW 2750   5.321   3.689   3.379 -0.1564 -0.2489  0.6835
  891SOL     OW 2751   5.291   0.102   2.592  0.2626 -0.5844 -0.1206
  891SOL    HW1 2752   5.338   0.167   2.539 -0.7549  0.9477  0.8392
  891SOL    HW2 2753   5.325   0.018   2.562  1.2921  0.3700 -1.6749
  891SOL     MW 2754   5.302   0.100   2.581  0.2646 -0.2661 -0.1967
  892SOL     OW 2755   3.071   3.677   3.266  0.2537 -0.0385  0.3342
  892SOL    HW1 2756   3.057   3.730   3.188 -1.9669 -0.8829  0.0951
  892SOL    HW2 2757   2.994   3.695   3.321  0.5274 -1.3687  1.1863
  892SOL     MW 2758   3.059   3.686   3.263  0.0045 -0.3171  0.4127
  893SOL     OW 2759   2.472   5.451   3.889 -0.0269  0.6706 -0.1833
  893SOL    HW1 2760   2.401   5.405   3.933 -1.0572  0.4633 -1.9803
  893SOL    HW2 2761   2.519   5.496   3.958 -0.2275 -1.4526  1.3698
  893SOL     MW 2762   2.469   5.451   3.903 -0.1845  0.3724 -0.2148
  894SOL     OW 2763   1.783   1.197   1.560  0.0050  0.3876 -0.3235
  894SOL    HW1 2764   1.772   1.124   1.500  1.6153  0.2204 -0.4433
  894SOL    HW2 2765   1.700   1.202   1.608  0.0884 -1.9132  0.1247
  894SOL     MW 2766   1.771   1.188   1.559  0.2217  0.0716 -0.2815
  895SOL     OW 2767   2.549   2.374   0.028  0.1296 -0.8131  0.1550
  895SOL    HW1 2768   2.493   2.340  -0.043  0.4812 -0.5683 -0.2423
  895SOL    HW2 2769   2.631   2.397  -0.016  0.7577 -1.7172  0.8347
  895SOL     MW 2770   2.552   2.373   0.013  0.2549 -0.8976  0.1911
  896SOL     OW 2771   5.989   5.209   5.230 -0.1927  1.0663  0.3677
  896SOL    HW1 2772   6.022   5.287   5.186  1.0084 -0.0639 -0.7746
  896SOL    HW2 2773   6.049   5.196   5.304  1.9955 -0.9695 -1.6898
  896SOL     MW 2774   6.001   5.217   5.234  0.2412  0.6614 -0.0420
  897SOL     OW 2775   2.219   3.935   1.732 -0.2286  0.9457 -0.6212
  897SOL    HW1 2776   2.261   3.955   1.816  0.1018  1.1798 -0.8439
  897SOL    HW2 2777   2.137   3.892   1.757  0.3429  0.0788 -0.1941
  897SOL     MW 2778   2.214   3.932   1.746 -0.1130  0.8645 -0.5950
  898SOL     OW 2779   0.972   4.564   4.995 -0.0334  0.6897 -0.2083
  898SOL    HW1 2780   1.062   4.574   4.965  0.3679  0.4460  0.8709
  898SOL    HW2 2781   0.973   4.486   5.051 -0.8609  0.7987 -0.0219
  898SOL     MW 2782   0.983   4.556   4.999 -0.0880  0.6728 -0.0463
  899SOL     OW 2783   5.268   0.439   4.158  0.2508 -0.5579  0.5587
  899SOL    HW1 2784   5.255   0.384   4.081  1.9028  0.6260 -0.6154
  899SOL    HW2 2785   5.236   0.386   4.231 -2.0010 -1.4376 -0.9888
  899SOL     MW 2786   5.262   0.425   4.157  0.1740 -0.5189  0.2098
  900SOL     OW 2787   3.921   5.646   0.770  0.1392  0.1236 -0.0159
  900SOL    HW1 2788   3.870   5.609   0.842  0.6102  0.4698  0.5006
  900SOL    HW2 2789   3.926   5.740   0.791 -0.3001  0.3361 -0.8553
  900SOL     MW 2790   3.915   5.654   0.782  0.1433  0.1950 -0.0572
  901SOL     OW 2791   2.822   2.750   2.827 -0.4950  0.3082 -0.1380
  901SOL    HW1 2792   2.740   2.742   2.876  0.2194 -1.4612  0.8041
  901SOL    HW2 2793   2.799   2.806   2.752 -2.3781  0.4394  0.5028
  901SOL     MW 2794   2.809   2.756   2.823 -0.6449  0.0982  0.0644
  902SOL     OW 2795   3.543   1.712   1.156 -0.4089 -0.1948  0.6153
  902SOL    HW1 2796   3.635   1.704   1.132 -0.4165 -2.9645  1.3052
  902SOL    HW2 2797   3.508   1.777   1.095  1.6722 -0.2040 -0.6406
  902SOL     MW 2798   3.550   1.719   1.145 -0.1435 -0.5505  0.5428
  903SOL     OW 2799   5.934   0.636   5.592  0.2798 -0.7125 -0.3374
  903SOL    HW1 2800   5.953   0.546   5.619  1.1066  0.1602  2.1331
  903SOL    HW2 2801   5.859   0.628   5.533  1.1826 -3.1302 -1.2361
  903SOL     MW 2802   5.927   0.624   5.588  0.5007 -0.9103 -0.1364
  904SOL     OW 2803   0.879   0.135   5.265 -0.1563  0.3566  0.4708
  904SOL    HW1 2804   0.967   0.140   5.227 -1.0558 -1.4439 -1.9935
  904SOL    HW2 2805   0.860   0.041   5.268 -1.4234  0.6555  2.3727
  904SOL     MW 2806   0.888   0.123   5.260 -0.4337  0.1644  0.3986
  905SOL     OW 2807   4.097   2.712   3.612 -0.0058 -0.2458 -0.1135
  905SOL    HW1 2808   4.066   2.632   3.570 -0.1475  0.8853 -2.2567
  905SOL    HW2 2809   4.191   2.697   3.627  0.2304 -0.3807 -1.6214
  905SOL     MW 2810   4.105   2.700   3.608  0.0062 -0.1183 -0.5808
  906SOL     OW 2811   1.592   2.404   1.540  0.2699  0.0193  0.0148
  906SOL    HW1 2812   1.560   2.440   1.623 -0.9359  1.5699 -1.0885
  906SOL    HW2 2813   1.543   2.452   1.473  1.3900 -1.0536 -1.6020
  906SOL     MW 2814   1.582   2.415   1.542  0.2588  0.0803 -0.3335
  907SOL     OW 2815   1.680   4.428   3.680  0.3800 -0.5285  0.1120
  907SOL    HW1 2816   1.647   4.402   3.766 -0.0506 -3.3187 -0.8439
  907SOL    HW2 2817   1.764   4.382   3.672 -0.5018 -1.8802 -1.7171
  907SOL     MW 2818   1.686   4.419   3.690  0.2121 -1.0586 -0.2444
  908SOL     OW 2819   3.473   5.314   0.505 -0.0387  0.1484 -0.3402
  908SOL    HW1 2820   3.556   5.268   0.490 -0.7925 -2.1813  2.2863
  908SOL    HW2 2821   3.486   5.362   0.587 -1.4784 -0.7510  0.4336
  908SOL     MW 2822   3.485   5.314   0.513 -0.3195 -0.2656  0.0951
  909SOL     OW 2823   4.345   3.217   0.456 -0.0664  0.8235  0.3743
  909SOL    HW1 2824   4.255   3.192   0.472  0.1437 -0.4431 -0.3533
  909SOL    HW2 2825   4.355   3.302   0.499 -0.8694 -0.2106  2.6770
  909SOL     MW 2826   4.335   3.225   0.463 -0.1416  0.5288  0.5759
  910SOL     OW 2827   0.433   0.676   5.024  0.0519  0.0311  0.4844
  910SOL    HW1 2828   0.481   0.618   4.966  1.0223  1.5084 -0.2203
  910SOL    HW2 2829   0.360   0.708   4.971  0.1199  0.2674  0.5311
  910SOL     MW 2830   0.429   0.673   5.010  0.1848  0.2505  0.4005
  911SOL     OW 2831   4.457   3.911   2.134 -0.2589 -0.1125 -0.0402
  911SOL    HW1 2832   4.408   3.992   2.143  1.3080  0.7129  1.2143
  911SOL    HW2 2833   4.540   3.937   2.093 -0.5250 -1.3690 -1.4288
  911SOL     MW 2834   4.461   3.925   2.130 -0.0920 -0.1678 -0.0570
  912SOL     OW 2835   1.870   5.913   4.592 -0.0553  0.5952  0.0890
  912SOL    HW1 2836   1.946   5.968   4.573  0.0464 -0.2082 -1.9736
  912SOL    HW2 2837   1.879   5.891   4.685  1.2095  2.0529  0.3333
  912SOL     MW 2838   1.881   5.917   4.602  0.1198  0.6795 -0.1435
  913SOL     OW 2839   4.418   5.957   0.161 -0.2167  0.2539 -0.3120
  913SOL    HW1 2840   4.358   6.030   0.149 -2.5529 -1.2373  1.8848
  913SOL    HW2 2841   4.393   5.894   0.094 -0.7117 -0.1167  0.2203
  913SOL     MW 2842   4.407   5.958   0.151 -0.5789  0.0157  0.0374
  914SOL     OW 2843   3.491   1.917   4.461 -0.4767 -0.1690  0.6710
  914SOL    HW1 2844   3.533   1.924   4.375  1.2633 -1.4975  1.3752
  914SOL    HW2 2845   3.481   2.008   4.491 -0.8382  0.2868 -0.7957
  914SOL     MW 2846   3.495   1.930   4.454 -0.3002 -0.2806  0.5732
  915SOL     OW 2847   2.296   0.005   1.993  0.5311  0.8067  0.2353
  915SOL    HW1 2848   2.240  -0.071   2.012 -2.1467  2.4928 -0.5652
  915SOL    HW2 2849   2.324  -0.008   1.902 -0.2788  0.9669 -0.0428
  915SOL     MW 2850   2.292  -0.007   1.984  0.0846  1.0428  0.0973
  916SOL     OW 2851   4.956   1.048   4.639  0.1352  0.5834 -0.5010
  916SOL    HW1 2852   5.040   1.092   4.628  0.5038 -0.3939 -1.7097
  916SOL    HW2 2853   4.891   1.111   4.609  0.7178  0.0315 -2.9906
  916SOL     MW 2854   4.959   1.061   4.634  0.2575  0.3875 -0.9747
  917SOL     OW 2855   5.041   1.491   2.425  0.3724 -0.3989  0.1866
  917SOL    HW1 2856   5.067   1.431   2.495  0.3591  0.0724  0.5944
  917SOL    HW2 2857   5.120   1.503   2.372  0.6268 -0.0314  0.6492
  917SOL     MW 2858   5.054   1.485   2.427  0.4029 -0.2916  0.2978
  918SOL     OW 2859   5.741   3.859   5.649 -0.2593 -0.0191 -0.3863
  918SOL    HW1 2860   5.700   3.923   5.706  2.1024  1.6690 -0.5115
  918SOL    HW2 2861   5.764   3.786   5.707 -1.3927 -0.0105  0.0773
  918SOL     MW 2862   5.739   3.858   5.663 -0.1020  0.1979 -0.3433
  919SOL     OW 2863   5.953   2.601   5.040 -0.5084 -0.2347  0.4352
  919SOL    HW1 2864   5.987   2.519   5.006 -2.1106 -0.8943  0.3559
  919SOL    HW2 2865   6.023   2.635   5.096 -0.0894 -1.9977  1.0140
  919SOL     MW 2866   5.966   2.595   5.043 -0.6599 -0.5448  0.4988
  920SOL     OW 2867   0.674   0.197   0.764  0.2013  0.4613 -0.5384
  920SOL    HW1 2868   0.609   0.127   0.770 -0.9340  1.3309 -2.2890
  920SOL    HW2 2869   0.750   0.163   0.812 -1.6596 -0.3938  1.9649
  920SOL     MW 2870   0.675   0.184   0.771 -0.1822  0.4631 -0.4420
  921SOL     OW 2871   4.287   0.453   0.313 -0.2664 -0.4258 -0.0925
  921SOL    HW1 2872   4.237   0.385   0.358 -0.2100 -0.2352  0.2646
  921SOL    HW2 2873   4.289   0.425   0.222 -0.3853 -0.8158  0.0227
  921SOL     MW 2874   4.281   0.441   0.307 -0.2747 -0.4513 -0.0320
  922SOL     OW 2875   4.116   4.945   5.540 -0.2579  0.1395 -0.2737
  922SOL    HW1 2876   4.076   4.947   5.453  1.8820 -1.0686 -1.3370
  922SOL    HW2 2877   4.068   4.877   5.587 -1.4169  0.7815 -0.5202
  922SOL     MW 2878   4.105   4.936   5.535 -0.1321  0.0668 -0.4411
  923SOL     OW 2879   4.539   4.227   1.961 -0.2729 -0.1743  0.0094
  923SOL    HW1 2880   4.526   4.312   2.003  0.6066 -0.1903  0.3079
  923SOL    HW2 2881   4.627   4.200   1.987 -0.4489 -1.0597 -0.2931
  923SOL     MW 2882   4.548   4.234   1.970 -0.1826 -0.2894  0.0088
  924SOL     OW 2883   1.471   0.701   0.008  0.5554  0.0259  0.4497
  924SOL    HW1 2884   1.539   0.636  -0.009  0.6167  0.6257 -1.6285
  924SOL    HW2 2885   1.495   0.776  -0.045 -0.3695  1.2004  1.6453
  924SOL     MW 2886   1.483   0.702  -0.001  0.4449  0.2530  0.3366
  925SOL     OW 2887   4.094   0.939   4.733  1.2321 -0.5192 -0.3722
  925SOL    HW1 2888   4.140   0.880   4.793  2.7140  0.9477 -0.0172
  925SOL    HW2 2889   4.010   0.897   4.717  2.4754 -2.9906 -0.5684
  925SOL     MW 2890   4.090   0.926   4.739  1.5812 -0.6478 -0.3519
  926SOL     OW 2891   4.572   5.312   2.427  0.8594 -0.6353 -0.1203
  926SOL    HW1 2892   4.569   5.219   2.404 -1.3636 -1.5192  3.3300
  926SOL    HW2 2893   4.484   5.330   2.461  0.9281  3.0266 -1.7433
  926SOL     MW 2894   4.560   5.302   2.428  0.5841 -0.2794  0.1135
  927SOL     OW 2895   1.521   2.169   3.118  0.0633  0.2256  0.1953
  927SOL    HW1 2896   1.430   2.192   3.103  0.4267  1.3453 -0.3231
  927SOL    HW2 2897   1.556   2.238   3.174  0.0739 -1.2707  2.1212
  927SOL     MW 2898   1.514   2.181   3.123  0.1111  0.1774  0.3755
  928SOL     OW 2899   2.831   0.161   2.146 -0.0704  0.3452  0.2920
  928SOL    HW1 2900   2.745   0.121   2.140  0.4558 -0.6956 -0.4733
  928SOL    HW2 2901   2.841   0.211   2.066  0.8440 -1.2056 -0.5921
  928SOL     MW 2902   2.822   0.162   2.135  0.1137  0.0134  0.0811
  929SOL     OW 2903   0.878   3.284   2.753 -0.1881  0.2881  0.3907
  929SOL    HW1 2904   0.930   3.358   2.785  0.0989  0.5124 -0.5716
  929SOL    HW2 2905   0.921   3.257   2.672 -0.9167 -0.2489  0.1732
  929SOL     MW 2906   0.890   3.290   2.747 -0.2446  0.2482  0.2396
  930SOL     OW 2907   0.057   4.034   5.174  0.2002 -0.0351  1.0320
  930SOL    HW1 2908   0.036   3.997   5.089 -1.1506  1.9382  0.4672
  930SOL    HW2 2909   0.153   4.045   5.173  0.3514 -1.3730  0.3534
  930SOL     MW 2910   0.067   4.031   5.163  0.0466  0.0467  0.8726
  931SOL     OW 2911   2.046   5.821   2.059 -1.3071  0.1295 -0.4347
  931SOL    HW1 2912   2.037   5.762   1.984 -0.9446 -0.6933  0.1602
  931SOL    HW2 2913   2.068   5.763   2.132 -4.0260  0.6246  0.8254
  931SOL     MW 2914   2.048   5.806   2.058 -1.6088  0.0877 -0.1972
  932SOL     OW 2915   1.864   0.811   1.149 -0.4606 -0.4216 -0.1130
  932SOL    HW1 2916   1.952   0.809   1.187 -0.0202 -0.1433 -1.1057
  932SOL    HW2 2917   1.869   0.752   1.074 -1.0903 -0.3257 -0.2282
  932SOL     MW 2918   1.876   0.803   1.144 -0.4848 -0.3738 -0.2549
  933SOL     OW 2919   1.127   1.339   3.134  0.0227  0.0612 -0.0271
  933SOL    HW1 2920   1.117   1.305   3.045  1.6757 -0.2000 -0.1276
  933SOL    HW2 2921   1.066   1.412   3.138  0.5511  0.6278 -1.6726
  933SOL     MW 2922   1.118   1.344   3.123  0.3020  0.1004 -0.2508
  934SOL     OW 2923   0.261   5.589   1.315 -0.5484  0.4219  0.2648
  934SOL    HW1 2924   0.225   5.663   1.362 -0.4070  0.9375 -0.4345
  934SOL    HW2 2925   0.191   5.524   1.313 -0.7219  0.5996  0.7434
  934SOL     MW 2926   0.248   5.590   1.321 -0.5525  0.5112  0.2365
  935SOL     OW 2927   3.821   5.438   5.300 -0.5983  0.1236 -0.2410
  935SOL    HW1 2928   3.888   5.386   5.344 -0.5567 -0.5626 -1.1116
  935SOL    HW2 2929   3.778   5.377   5.240  1.0475  1.6466 -3.0439
  935SOL     MW 2930   3.824   5.424   5.298 -0.3822  0.2308 -0.7110
  936SOL     OW 2931   1.178   2.497   3.476 -0.4270 -0.0665 -0.7648
  936SOL    HW1 2932   1.104   2.492   3.415  0.5768 -1.5531 -1.8664
  936SOL    HW2 2933   1.144   2.459   3.557 -1.3384  0.6673 -0.7901
  936SOL     MW 2934   1.164   2.492   3.479 -0.4152 -0.1628 -0.9091
  937SOL     OW 2935   5.136   4.318   3.461 -0.0582  0.1237 -0.1952
  937SOL    HW1 2936   5.146   4.230   3.422 -0.6810 -1.0776  2.2740
  937SOL    HW2 2937   5.045   4.341   3.443 -0.3877 -0.4920  0.6606
  937SOL     MW 2938   5.125   4.309   3.453 -0.1802 -0.1092  0.2306
  938SOL     OW 2939   5.303   5.734   5.004 -0.3685  0.0902  0.4171
  938SOL    HW1 2940   5.301   5.675   4.929  0.7913 -1.0756  1.2705
  938SOL    HW2 2941   5.240   5.696   5.066  0.1744 -0.1111  0.8536
  938SOL     MW 2942   5.295   5.722   5.002 -0.1507 -0.0849  0.5822
  939SOL     OW 2943   1.030   5.265   0.967 -0.2703  0.3105 -0.4232
  939SOL    HW1 2944   0.957   5.223   1.012  0.2906  1.8327  2.0338
  939SOL    HW2 2945   1.027   5.231   0.878 -2.8081 -1.0847  0.1605
  939SOL     MW 2946   1.021   5.256   0.962 -0.5233  0.3271 -0.0340
  940SOL     OW 2947   1.406   0.786   4.679  0.4640 -0.1732 -0.5593
  940SOL    HW1 2948   1.386   0.878   4.697 -2.2071 -1.0717  1.4913
  940SOL    HW2 2949   1.494   0.774   4.713  1.4165  1.9800 -2.2002
  940SOL     MW 2950   1.414   0.796   4.686  0.2440 -0.0126 -0.5069
  941SOL     OW 2951   5.117   5.022   2.134  0.2848  0.0272  0.8433
  941SOL    HW1 2952   5.174   5.096   2.114 -0.3565  0.5058  0.8112
  941SOL    HW2 2953   5.172   4.964   2.187  1.4037 -0.4031 -0.7731
  941SOL     MW 2954   5.132   5.024   2.138  0.3457  0.0329  0.6320
  942SOL     OW 2955   5.018   5.130   0.109  0.3247 -0.2079  0.1162
  942SOL    HW1 2956   4.924   5.121   0.093  0.1963  0.8989  0.2008
  942SOL    HW2 2957   5.058   5.065   0.051 -0.4645 -0.3427 -0.2927
  942SOL     MW 2958   5.011   5.121   0.099  0.2069 -0.0834  0.0747
  943SOL     OW 2959   3.151   0.030   4.415  0.5813  0.0987  0.0589
  943SOL    HW1 2960   3.062   0.056   4.392  0.5001 -0.3843 -0.1966
  943SOL    HW2 2961   3.175   0.086   4.488  0.6418  1.2934 -0.8651
  943SOL     MW 2962   3.142   0.040   4.421  0.5786  0.1898 -0.0920
  944SOL     OW 2963   1.829   5.416   3.550 -0.3432 -0.2799  0.0101
  944SOL    HW1 2964   1.863   5.441   3.464 -4.6482  2.8632 -0.9435
  944SOL    HW2 2965   1.787   5.331   3.536  0.0528 -0.3693 -0.6612
  944SOL     MW 2966   1.828   5.408   3.537 -0.8435  0.1106 -0.1981
  945SOL     OW 2967   4.497   4.853   0.229 -0.3418  0.1013  0.4305
  945SOL    HW1 2968   4.547   4.852   0.147 -1.1609 -2.2675 -0.0699
  945SOL    HW2 2969   4.564   4.854   0.297  0.3705 -0.6922 -0.2486
  945SOL     MW 2970   4.512   4.853   0.227 -0.3557 -0.3037  0.2795
  946SOL     OW 2971   1.634   5.808   2.986  0.2095  0.8707  0.0780
  946SOL    HW1 2972   1.606   5.897   2.965 -0.4553  0.4021 -1.0516
  946SOL    HW2 2973   1.710   5.793   2.929  1.8967  1.6021  2.0652
  946SOL     MW 2974   1.640   5.817   2.976  0.3402  0.9050  0.1881
  947SOL     OW 2975   1.037   4.365   0.266  0.2303 -0.4819 -0.1923
  947SOL    HW1 2976   0.956   4.396   0.305  0.2922  1.2287 -1.3348
  947SOL    HW2 2977   1.060   4.287   0.316 -2.4638 -1.3840 -0.2849
  947SOL     MW 2978   1.030   4.359   0.277 -0.1067 -0.3777 -0.3504
  948SOL     OW 2979   4.574   3.212   4.438 -0.1212 -0.8562 -0.1217
  948SOL    HW1 2980   4.531   3.253   4.513 -0.6518  1.9435 -1.8673
  948SOL    HW2 2981   4.651   3.169   4.475 -0.9875 -0.5331  2.1717
  948SOL     MW 2982   4.578   3.212   4.452 -0.3004 -0.4563 -0.0520
  949SOL     OW 2983   0.188   2.835   3.214 -0.3729 -0.9746  0.0095
  949SOL    HW1 2984   0.283   2.840   3.205 -0.3566  0.9008  1.0163
  949SOL    HW2 2985   0.167   2.901   3.280 -2.4777 -0.6281 -0.9773
  949SOL     MW 2986   0.197   2.844   3.221 -0.6403 -0.6900  0.0119
  950SOL     OW 2987   1.441   5.185   0.782 -0.4032  0.2710 -0.6233
  950SOL    HW1 2988   1.453   5.130   0.860 -0.5739  1.5251  0.3071
  950SOL    HW2 2989   1.529   5.217   0.762  0.0812 -2.0718 -2.5076
  950SOL     MW 2990   1.454   5.182   0.789 -0.3630  0.1316 -0.7454
  951SOL     OW 2991   2.122   2.122   2.670 -0.2513 -0.0100  0.2485
  951SOL    HW1 2992   2.092   2.031   2.668 -1.5252  0.3245  2.2094
  951SOL    HW2 2993   2.205   2.120   2.716  0.4246 -0.3387 -0.9602
  951SOL     MW 2994   2.129   2.110   2.675 -0.3278 -0.0091  0.3450
  952SOL     OW 2995   3.639   3.384   1.674 -0.2902  1.0109 -0.3945
  952SOL    HW1 2996   3.680   3.310   1.719  0.5336  1.5845 -0.1958
  952SOL    HW2 2997   3.640   3.455   1.739  0.8186  1.8122 -1.2666
  952SOL     MW 2998   3.644   3.383   1.688 -0.0427  1.1868 -0.4805
  953SOL     OW 2999   1.559   4.339   1.750  0.6108  0.2094 -0.0814
  953SOL    HW1 3000   1.563   4.422   1.703  0.5248  0.9008  1.0954
  953SOL    HW2 3001   1.513   4.280   1.691  0.0000  1.2169 -0.6304
  953SOL     MW 3002   1.553   4.342   1.737  0.5217  0.4268 -0.0011
  954SOL     OW 3003   4.769   3.391   3.538 -0.1771  0.5541  0.1208
  954SOL    HW1 3004   4.807   3.323   3.594 -1.4303 -0.3448 -0.0869
  954SOL    HW2 3005   4.736   3.456   3.599 -1.3861 -0.3386  0.4383
  954SOL     MW 3006   4.770   3.390   3.553 -0.4916  0.3247  0.1347
  955SOL     OW 3007   0.449   4.136   5.686  0.0519  0.0104  0.2020
  955SOL    HW1 3008   0.494   4.052   5.696 -1.2286 -0.9339 -1.5771
  955SOL    HW2 3009   0.481   4.171   5.602  0.0143  0.9270  0.5633
  955SOL     MW 3010   0.459   4.130   5.676 -0.1169  0.0067  0.0200
  956SOL     OW 3011   0.525   3.204   4.994  0.8351 -0.0118 -0.1967
  956SOL    HW1 3012   0.525   3.120   5.041 -0.6421  0.3595  0.5067
  956SOL    HW2 3013   0.433   3.230   4.992  1.0399  0.6635 -2.1048
  956SOL     MW 3014   0.513   3.196   5.000  0.6722  0.1221 -0.3510
  957SOL     OW 3015   3.382   2.000   2.487  0.6152 -0.0757  0.1978
  957SOL    HW1 3016   3.316   2.048   2.436  0.2401 -0.2501  0.5138
  957SOL    HW2 3017   3.466   2.035   2.457  0.3933 -0.1016 -0.4602
  957SOL     MW 3018   3.384   2.011   2.476  0.5386 -0.1016  0.1543
  958SOL     OW 3019   5.227   1.383   1.185  0.0414  0.2314  0.8382
  958SOL    HW1 3020   5.313   1.395   1.225 -0.0345 -1.4988  1.5552
  958SOL    HW2 3021   5.175   1.340   1.253 -0.0726 -2.8903 -1.1321
  958SOL     MW 3022   5.231   1.379   1.199  0.0172 -0.3897  0.6779
  959SOL     OW 3023   4.118   0.012   4.893 -0.1687 -0.5226 -0.8783
  959SOL    HW1 3024   4.068   0.093   4.903 -2.1933 -1.9415  0.7733
  959SOL    HW2 3025   4.165   0.024   4.811  0.7084  2.9247  0.0107
  959SOL     MW 3026   4.118   0.024   4.884 -0.3161 -0.2627 -0.5531
  960SOL     OW 3027   3.767   0.433   4.682  0.4307  0.1957 -0.8193
  960SOL    HW1 3028   3.856   0.457   4.657  0.0101  1.0417 -1.5554
  960SOL    HW2 3029   3.767   0.337   4.684  1.0085  0.1627 -2.1038
  960SOL     MW 3030   3.778   0.424   4.679  0.4508  0.2998 -1.0777
  961SOL     OW 3031   1.335   3.161   3.929 -0.7013  0.3797  0.1830
  961SOL    HW1 3032   1.329   3.243   3.880 -3.0256  0.2698  0.2206
  961SOL    HW2 3033   1.382   3.102   3.870  0.9598  1.7021  0.1367
  961SOL     MW 3034   1.340   3.164   3.915 -0.7862  0.5350  0.1817
  962SOL     OW 3035   2.459   0.756   4.801 -0.6469  0.2862  0.5931
  962SOL    HW1 3036   2.402   0.801   4.739  1.9394  0.8936 -1.4172
  962SOL    HW2 3037   2.444   0.663   4.784  0.4876  0.4426 -1.4282
  962SOL     MW 3038   2.450   0.750   4.791 -0.1702  0.3840  0.0772
  963SOL     OW 3039   2.369   0.079   1.135 -0.2584  0.6382 -0.7605
  963SOL    HW1 3040   2.453   0.081   1.090  1.3820  0.7135  2.1710
  963SOL    HW2 3041   2.371   0.154   1.194 -2.1385  0.3106 -0.2391
  963SOL     MW 3042   2.380   0.089   1.137 -0.2892  0.6059 -0.3185
  964SOL     OW 3043   0.107   3.891   2.006 -0.0734 -0.5384  0.3724
  964SOL    HW1 3044   0.043   3.960   2.023  0.8773  0.1481  1.2447
  964SOL    HW2 3045   0.139   3.909   1.918 -0.1811 -0.1444  0.4123
  964SOL     MW 3046   0.103   3.902   1.997  0.0345 -0.4001  0.4891
  965SOL     OW 3047   2.934   4.003   0.902 -0.5288  0.3630 -0.4479
  965SOL    HW1 3048   2.868   4.063   0.866 -1.3630  0.1445  0.6933
  965SOL    HW2 3049   3.017   4.036   0.868 -0.9743  2.1973  0.1972
  965SOL     MW 3050   2.936   4.015   0.893 -0.6926  0.5698 -0.2192
  966SOL     OW 3051   3.335   0.861   4.672  0.6246  0.5145 -0.8949
  966SOL    HW1 3052   3.354   0.828   4.760  0.1469  2.6878  0.0697
  966SOL    HW2 3053   3.253   0.818   4.647  1.4572 -1.1185 -0.8330
  966SOL     MW 3054   3.327   0.852   4.680  0.6697  0.5838 -0.7639
  967SOL     OW 3055   0.732   2.748   5.794 -0.3684 -0.1020 -0.6541
  967SOL    HW1 3056   0.773   2.825   5.753  0.4411 -0.0141  0.3146
  967SOL    HW2 3057   0.670   2.717   5.728 -0.8398  1.4927 -0.9911
  967SOL     MW 3058   0.730   2.754   5.780 -0.3251  0.1135 -0.5732
  968SOL     OW 3059   1.552   0.815   1.741 -0.2435 -0.3444  0.1679
  968SOL    HW1 3060   1.618   0.763   1.695 -2.9199 -0.7932 -3.3918
  968SOL    HW2 3061   1.500   0.751   1.789  0.5208 -0.2181  1.1802
  968SOL     MW 3062   1.554   0.800   1.741 -0.4883 -0.3857 -0.1583
  969SOL     OW 3063   1.718   5.160   3.533 -0.7215  0.0872  0.4184
  969SOL    HW1 3064   1.733   5.138   3.441  1.0784  1.2428  0.4121
  969SOL    HW2 3065   1.754   5.087   3.582  1.5065  1.0830  0.2896
  969SOL     MW 3066   1.724   5.148   3.528 -0.2060  0.3629  0.4013
  970SOL     OW 3067   1.670   5.229   1.956 -0.3098  0.2680  0.0492
  970SOL    HW1 3068   1.677   5.316   1.917  0.9848  0.6664  1.1099
  970SOL    HW2 3069   1.588   5.232   2.005  0.4778  1.4501  1.3517
  970SOL     MW 3070   1.661   5.241   1.957 -0.0433  0.4702  0.3517
  971SOL     OW 3071   5.046   4.019   5.485 -0.2592 -0.2133 -0.3042
  971SOL    HW1 3072   5.003   4.102   5.504  0.1223 -0.1011  0.0823
  971SOL    HW2 3073   5.109   4.008   5.557 -0.1497 -0.7226 -0.4777
  971SOL     MW 3074   5.049   4.028   5.497 -0.1969 -0.2642 -0.2770
  972SOL     OW 3075   3.473   4.710   4.879 -0.1644  0.0418  0.1214
  972SOL    HW1 3076   3.446   4.633   4.928  0.5617 -0.8203 -0.8093
  972SOL    HW2 3077   3.400   4.729   4.820 -0.1947 -0.1438  0.1005
  972SOL     MW 3078   3.460   4.702   4.877 -0.0753 -0.0925 -0.0010
  973SOL     OW 3079   1.137   3.273   1.270  0.7115 -0.5034  0.3934
  973SOL    HW1 3080   1.100   3.190   1.299 -1.8037  0.3120 -0.3418
  973SOL    HW2 3081   1.190   3.304   1.344 -3.2858  0.2053  3.1000
  973SOL     MW 3082   1.139   3.266   1.283 -0.1222 -0.3083  0.6458
  974SOL     OW 3083   4.182   5.245   1.458  0.5366 -0.2411 -0.1547
  974SOL    HW1 3084   4.276   5.234   1.448  1.1049  2.7287  1.4532
  974SOL    HW2 3085   4.154   5.166   1.504  2.2522 -1.0620 -0.4807
  974SOL     MW 3086   4.190   5.233   1.463  0.8292  0.0339  0.0094
  975SOL     OW 3087   0.948   4.224   2.827 -0.3124  0.2240 -0.4194
  975SOL    HW1 3088   0.902   4.171   2.762 -1.0904  0.2296  0.1133
  975SOL    HW2 3089   1.033   4.182   2.837 -1.7836 -2.4446  1.8093
  975SOL     MW 3090   0.953   4.212   2.820 -0.6003 -0.1168 -0.0660
  976SOL     OW 3091   0.718   0.644   2.290 -0.0281  0.1568  0.3596
  976SOL    HW1 3092   0.738   0.736   2.307  1.6919 -0.2919  0.8569
  976SOL    HW2 3093   0.769   0.622   2.213 -0.1186 -0.4931  0.4836
  976SOL     MW 3094   0.727   0.653   2.283  0.1805  0.0162  0.4392
  977SOL     OW 3095   1.513   1.948   4.802  0.3282  0.4952  0.3178
  977SOL    HW1 3096   1.444   1.893   4.840 -2.3037  2.3043 -1.7035
  977SOL    HW2 3097   1.518   2.024   4.859 -0.6912  1.2609 -0.6159
  977SOL     MW 3098   1.505   1.950   4.814 -0.1392  0.8247 -0.0606
  978SOL     OW 3099   5.327   0.504   1.424  0.3288  0.3450  0.2926
  978SOL    HW1 3100   5.361   0.567   1.488 -3.8840  2.3087  0.8295
  978SOL    HW2 3101   5.279   0.440   1.477  0.5602 -0.5804 -0.6127
  978SOL     MW 3102   5.325   0.504   1.439 -0.1812  0.4779  0.2455
  979SOL     OW 3103   0.465   1.347   1.857 -0.2171  0.1073 -0.4522
  979SOL    HW1 3104   0.476   1.436   1.826 -0.0796  1.5878  3.5316
  979SOL    HW2 3105   0.551   1.321   1.889 -0.7679 -0.5974  0.5046
  979SOL     MW 3106   0.477   1.355   1.857 -0.2700  0.2067  0.1802
  980SOL     OW 3107   2.394   1.531   5.607  0.5163 -0.0236 -0.3975
  980SOL    HW1 3108   2.427   1.531   5.696 -2.0900 -2.2129  0.6211
  980SOL    HW2 3109   2.433   1.609   5.567  1.6058  1.0662  2.6661
  980SOL     MW 3110   2.403   1.541   5.613  0.3223 -0.1644  0.1249
  981SOL     OW 3111   2.354   1.808   2.784  0.6171 -0.0908  0.0251
  981SOL    HW1 3112   2.261   1.825   2.771  0.5283 -1.5001 -1.3951
  981SOL    HW2 3113   2.359   1.763   2.868 -0.3104 -2.2382 -1.0180
  981SOL     MW 3114   2.343   1.804   2.793  0.4869 -0.5461 -0.2902
  982SOL     OW 3115   1.249   1.487   4.994 -0.2792  0.0919 -0.3408
  982SOL    HW1 3116   1.213   1.399   4.980 -1.7531  0.6031  0.1221
  982SOL    HW2 3117   1.176   1.546   4.978  0.5238  1.2063  0.0013
  982SOL     MW 3118   1.235   1.483   4.990 -0.3651  0.3000 -0.2375
  983SOL     OW 3119   3.941   5.548   1.681  0.3446  0.0546 -0.6200
  983SOL    HW1 3120   3.968   5.636   1.707  1.8890  0.0244 -2.0279
  983SOL    HW2 3121   3.895   5.561   1.598  0.1442 -0.4225 -0.5830
  983SOL     MW 3122   3.939   5.561   1.674  0.5167 -0.0105 -0.7955
  984SOL     OW 3123   5.102   1.352   2.690 -0.3669 -0.0997  0.4210
  984SOL    HW1 3124   5.027   1.293   2.705 -0.8651  0.7891  1.5679
  984SOL    HW2 3125   5.074   1.435   2.729  0.9011  0.4785  0.1024
  984SOL     MW 3126   5.089   1.355   2.697 -0.2680  0.0881  0.5271
  985SOL     OW 3127   5.610   5.010   5.452 -0.1420  0.1886 -0.1467
  985SOL    HW1 3128   5.596   4.928   5.498 -2.5238 -0.4506 -1.8971
  985SOL    HW2 3129   5.695   5.000   5.410  1.5775  0.3813  3.1962
  985SOL     MW 3130   5.619   4.998   5.452 -0.2270  0.1316  0.0567
  986SOL     OW 3131   5.964   0.465   4.895 -0.1682  0.1166  0.5218
  986SOL    HW1 3132   5.923   0.457   4.981 -4.5067  0.2281 -1.4383
  986SOL    HW2 3133   6.016   0.385   4.886 -2.0366 -1.3063  2.0137
  986SOL     MW 3134   5.966   0.454   4.905 -0.9627 -0.0513  0.4625
  987SOL     OW 3135   3.246   2.776   0.085  1.0526  0.0365 -0.2241
  987SOL    HW1 3136   3.311   2.773   0.015  0.9788  0.1213 -0.2957
  987SOL    HW2 3137   3.255   2.691   0.129 -1.1470 -1.4163 -2.3886
  987SOL     MW 3138   3.255   2.765   0.081  0.7615 -0.1383 -0.5103
  988SOL     OW 3139   0.932   2.146   0.362  0.4025  0.6851  0.4151
  988SOL    HW1 3140   0.934   2.077   0.429  0.9540  0.1560 -0.1379
  988SOL    HW2 3141   0.845   2.185   0.370 -0.5000 -1.1315 -0.3321
  988SOL     MW 3142   0.921   2.142   0.372  0.3576  0.3846  0.2487
  989SOL     OW 3143   1.907   3.763   0.398  0.5084  0.5157  0.1252
  989SOL    HW1 3144   1.830   3.805   0.362  0.4064  0.7356  0.5921
  989SOL    HW2 3145   1.958   3.834   0.436  0.2222  0.1982  1.1224
  989SOL     MW 3146   1.904   3.777   0.399  0.4587  0.5031  0.3126
  990SOL     OW 3147   4.702   0.969   2.900 -0.0912  0.3674 -0.2755
  990SOL    HW1 3148   4.683   1.043   2.842 -1.2294  1.0001  0.8554
  990SOL    HW2 3149   4.770   1.002   2.959  0.3080  0.0869 -0.5815
  990SOL     MW 3150   4.708   0.983   2.900 -0.1860  0.4125 -0.1702
  991SOL     OW 3151   1.039   1.901   3.959  0.0971 -0.1918  0.3241
  991SOL    HW1 3152   0.970   1.901   4.025 -1.3576  1.4915 -1.1440
  991SOL    HW2 3153   0.992   1.909   3.876  2.0267  0.3627 -0.7293
  991SOL     MW 3154   1.024   1.902   3.957  0.1578  0.0948  0.0014
  992SOL     OW 3155   0.834   3.014   0.988  0.1061  0.1955 -0.9582
  992SOL    HW1 3156   0.780   2.941   0.959  0.0200  0.0632 -0.4815
  992SOL    HW2 3157   0.924   2.987   0.970  0.0092  0.4296 -1.7796
  992SOL     MW 3158   0.839   3.001   0.982  0.0827  0.2086 -1.0023
  993SOL     OW 3159   4.332   5.121   5.533  0.6767 -0.5228 -0.0322
  993SOL    HW1 3160   4.287   5.180   5.473 -0.2280 -0.8069  0.3516
  993SOL    HW2 3161   4.272   5.047   5.544  1.2087 -0.8787  0.5380
  993SOL     MW 3162   4.318   5.119   5.527  0.6285 -0.6051  0.0896
  994SOL     OW 3163   2.686   3.326   2.999 -0.3655  0.0373  0.4696
  994SOL    HW1 3164   2.668   3.233   3.012  0.5983 -0.4372 -1.3011
  994SOL    HW2 3165   2.773   3.338   3.038 -0.6645  0.2745  1.0516
  994SOL     MW 3166   2.695   3.315   3.005 -0.2804  0.0072  0.3171
  995SOL     OW 3167   3.786   0.203   5.464 -0.6303  0.7490  0.1761
  995SOL    HW1 3168   3.852   0.269   5.441  1.1491 -1.3396 -0.8338
  995SOL    HW2 3169   3.755   0.230   5.551  1.6325  1.7157  0.7151
  995SOL     MW 3170   3.791   0.215   5.472 -0.1128  0.6054  0.1154
  996SOL     OW 3171   0.003   3.778   5.465  0.6026 -0.2199 -0.3497
  996SOL    HW1 3172   0.018   3.759   5.373  0.4964  1.0651 -0.6472
  996SOL    HW2 3173  -0.080   3.735   5.486 -0.7149  1.6288 -1.5579
  996SOL     MW 3174  -0.006   3.770   5.456  0.4203  0.1812 -0.5426
  997SOL     OW 3175   2.973   1.938   1.893 -0.0137 -0.1469  0.2113
  997SOL    HW1 3176   2.934   1.875   1.954  0.0777 -0.4522 -0.0377
  997SOL    HW2 3177   3.050   1.972   1.939  0.1270 -0.4687  0.2224
  997SOL     MW 3178   2.978   1.934   1.907  0.0162 -0.2272  0.1807
  998SOL     OW 3179   0.490   4.496   0.483  0.3931  0.0891  0.3748
  998SOL    HW1 3180   0.504   4.463   0.394 -4.8783 -1.0024 -0.1911
  998SOL    HW2 3181   0.494   4.592   0.474  0.0854 -0.0155 -1.0433
  998SOL     MW 3182   0.492   4.504   0.471 -0.3211 -0.0639  0.1208
  999SOL     OW 3183   2.366   5.570   0.934  0.4215  0.1381 -0.1066
  999SOL    HW1 3184   2.308   5.646   0.938 -0.2555 -0.3109 -1.2239
  999SOL    HW2 3185   2.454   5.607   0.928  0.0183  0.8524 -1.8254
  999SOL     MW 3186   2.370   5.585   0.934  0.2835  0.1721 -0.4697
 1000SOL     OW 3187   5.729   5.997   5.456 -0.0584  0.3752  0.2639
 1000SOL    HW1 3188   5.751   5.969   5.545 -1.0587 -1.4522 -0.0456
 1000SOL    HW2 3189   5.646   6.043   5.465 -0.1356  0.2318  0.2826
 1000SOL     MW 3190   5.722   5.999   5.469 -0.1965  0.1229  0.2265
 1001SOL     OW 3191   1.378   4.361   4.746 -0.4032  0.5558 -0.1247
 1001SOL    HW1 3192   1.429   4.285   4.776  0.9323  1.2758 -0.5372
 1001SOL    HW2 3193   1.382   4.356   4.650 -2.5863 -0.3439 -0.2126
 1001SOL     MW 3194   1.385   4.350   4.737 -0.5118  0.5322 -0.1888
 1002SOL     OW 3195   0.681   3.665   1.651 -0.4284 -0.5379 -0.2077
 1002SOL    HW1 3196   0.633   3.741   1.618 -1.4565 -1.2725 -0.4459
 1002SOL    HW2 3197   0.651   3.592   1.596 -0.9422 -1.4836  1.2718
 1002SOL     MW 3198   0.671   3.665   1.640 -0.6258 -0.7527 -0.0489
 1003SOL     OW 3199   5.841   4.485   0.758  0.1020 -0.1917 -0.0957
 1003SOL    HW1 3200   5.812   4.422   0.823  2.0115 -0.1196  0.8739
 1003SOL    HW2 3201   5.925   4.518   0.792  0.9928  0.0679 -2.4312
 1003SOL     MW 3202   5.848   4.481   0.770  0.4601 -0.1488 -0.2705
 1004SOL     OW 3203   3.577   0.454   5.166 -0.8345  0.1861  0.5699
 1004SOL    HW1 3204   3.482   0.452   5.172 -1.0163  2.7621 -0.7735
 1004SOL    HW2 3205   3.604   0.519   5.231 -0.1574  0.7937 -0.2929
 1004SOL     MW 3206   3.569   0.462   5.175 -0.7713  0.5936  0.2871
 1005SOL     OW 3207   4.840   4.476   0.141  0.1530 -0.2050 -0.0161
 1005SOL    HW1 3208   4.776   4.405   0.150  0.4462 -0.8296 -2.4954
 1005SOL    HW2 3209   4.804   4.532   0.072  1.2889  0.5650  0.0020
 1005SOL     MW 3210   4.827   4.474   0.133  0.3357 -0.1864 -0.3312
 1006SOL     OW 3211   1.132   3.062   4.548  0.0306 -0.2217 -0.6678
 1006SOL    HW1 3212   1.192   3.005   4.596 -0.1788  0.0607 -0.0673
 1006SOL    HW2 3213   1.174   3.148   4.549  0.6378 -0.4946 -2.1007
 1006SOL     MW 3214   1.145   3.065   4.554  0.0815 -0.2203 -0.7744
 1007SOL     OW 3215   0.310   1.587   3.415  0.6567 -0.1607  0.0234
 1007SOL    HW1 3216   0.326   1.543   3.332  2.6822 -0.2072  0.4120
 1007SOL    HW2 3217   0.221   1.623   3.407  1.3837  1.0918 -2.6863
 1007SOL     MW 3218   0.300   1.586   3.403  1.0090 -0.0063 -0.2735
 1008SOL     OW 3219   2.743   3.067   5.613 -0.0419  0.4613  0.3960
 1008SOL    HW1 3220   2.813   3.062   5.548 -1.1090 -0.4633 -0.7134
 1008SOL    HW2 3221   2.686   2.993   5.593 -1.3556  1.2109  1.2534
 1008SOL     MW 3222   2.744   3.057   5.602 -0.3464  0.4389  0.3633
 1009SOL     OW 3223   4.625   1.819   2.065  0.4245 -0.4428 -0.4342
 1009SOL    HW1 3224   4.687   1.756   2.101  2.2730  1.8051  0.4575
 1009SOL    HW2 3225   4.662   1.842   1.980 -0.5668 -1.0203 -1.0197
 1009SOL     MW 3226   4.638   1.814   2.059  0.5341 -0.2290 -0.3951
 1010SOL     OW 3227   0.198   5.790   5.706 -0.1003 -0.0830 -0.5921
 1010SOL    HW1 3228   0.161   5.870   5.671 -0.3582 -0.2986 -0.8182
 1010SOL    HW2 3229   0.289   5.812   5.725 -0.3589  0.4634  0.0160
 1010SOL     MW 3230   0.205   5.803   5.704 -0.1664 -0.0405 -0.5436
 1011SOL     OW 3231   5.348   2.692   1.688  0.0486 -0.1805 -0.0717
 1011SOL    HW1 3232   5.301   2.740   1.620  3.0193  2.2429 -0.5317
 1011SOL    HW2 3233   5.324   2.736   1.769  0.5073  0.2220 -0.1540
 1011SOL     MW 3234   5.339   2.704   1.689  0.4878  0.1812 -0.1409
 1012SOL     OW 3235   0.694   0.110   4.026 -0.0276 -0.4337  0.2298
 1012SOL    HW1 3236   0.696   0.126   4.120  2.0113  1.7938 -0.1727
 1012SOL    HW2 3237   0.777   0.143   3.993 -0.6814 -1.2244 -2.3685
 1012SOL     MW 3238   0.705   0.116   4.034  0.1498 -0.2497 -0.1550
 1013SOL     OW 3239   0.214   2.499   4.772 -0.0917 -0.2621  0.6586
 1013SOL    HW1 3240   0.158   2.576   4.758  1.0173  0.3557 -0.4976
 1013SOL    HW2 3241   0.157   2.435   4.814 -2.2414 -0.3724 -2.3110
 1013SOL     MW 3242   0.200   2.501   4.776 -0.2249 -0.1969  0.1307
 1014SOL     OW 3243   3.223   2.476   0.699  0.2489 -0.2241  0.0395
 1014SOL    HW1 3244   3.131   2.460   0.681  0.0850  2.7959 -2.2277
 1014SOL    HW2 3245   3.224   2.515   0.787 -0.7392  0.5599 -0.2898
 1014SOL     MW 3246   3.212   2.479   0.708  0.1016  0.2630 -0.2930
 1015SOL     OW 3247   4.116   2.445   0.123 -0.1203  0.2881 -0.2646
 1015SOL    HW1 3248   4.072   2.451   0.208 -0.2546 -0.4513 -0.2761
 1015SOL    HW2 3249   4.044   2.437   0.060  0.0059 -0.0713 -0.3639
 1015SOL     MW 3250   4.101   2.445   0.126 -0.1211  0.1473 -0.2788
 1016SOL     OW 3251   3.367   2.368   2.961  0.1914  0.3718  0.4489
 1016SOL    HW1 3252   3.391   2.375   3.054 -0.1727  2.5033  0.4049
 1016SOL    HW2 3253   3.302   2.437   2.948 -0.7267 -0.7656 -1.1003
 1016SOL     MW 3254   3.362   2.378   2.971  0.0274  0.4990  0.2451
 1017SOL     OW 3255   5.869   4.685   5.069 -0.0441  0.2988  0.2067
 1017SOL    HW1 3256   5.786   4.697   5.024  0.0116  0.1920  0.0762
 1017SOL    HW2 3257   5.930   4.741   5.022 -0.3962  1.6195  1.2800
 1017SOL     MW 3258   5.866   4.694   5.057 -0.0820  0.4539  0.3276
 1018SOL     OW 3259   4.409   1.841   4.102 -0.2153 -0.8286 -0.7979
 1018SOL    HW1 3260   4.358   1.859   4.024 -3.2230 -1.8723  0.8621
 1018SOL    HW2 3261   4.443   1.752   4.089 -0.8653 -1.0726 -0.8460
 1018SOL     MW 3262   4.407   1.832   4.091 -0.6833 -0.9935 -0.5918
 1019SOL     OW 3263   5.439   2.470   1.540  0.0517  0.6166 -0.4017
 1019SOL    HW1 3264   5.411   2.535   1.605  0.4911  0.1704  0.2421
 1019SOL    HW2 3265   5.441   2.388   1.588 -1.8727 -0.1422 -1.5612
 1019SOL     MW 3266   5.435   2.468   1.555 -0.1383  0.4625 -0.4678
 1020SOL     OW 3267   2.867   5.325   2.665 -0.4234 -0.5290 -0.6384
 1020SOL    HW1 3268   2.864   5.244   2.715 -1.9670  0.1985  0.5013
 1020SOL    HW2 3269   2.793   5.376   2.697 -0.2640  0.7931 -2.2711
 1020SOL     MW 3270   2.857   5.321   2.675 -0.6003 -0.2666 -0.7012
 1021SOL     OW 3271   3.509   5.025   4.297 -0.3686 -0.0420  0.4504
 1021SOL    HW1 3272   3.585   4.976   4.266 -0.9882 -0.9364  0.2864
 1021SOL    HW2 3273   3.544   5.089   4.358  0.6310  0.2707 -0.4349
 1021SOL     MW 3274   3.523   5.027   4.301 -0.3202 -0.1168  0.3157
 1022SOL     OW 3275   4.739   2.132   1.657  0.3296 -0.6490 -0.0241
 1022SOL    HW1 3276   4.812   2.086   1.698  0.2817 -1.7480 -1.1496
 1022SOL    HW2 3277   4.747   2.112   1.564  0.9016  2.4209 -0.7169
 1022SOL     MW 3278   4.750   2.124   1.650  0.3963 -0.3965 -0.2568
 1023SOL     OW 3279   0.448   0.936   0.537 -0.5462  0.0824 -0.5178
 1023SOL    HW1 3280   0.393   0.865   0.569  0.4851 -0.6800 -0.4103
 1023SOL    HW2 3281   0.392   0.984   0.476 -2.0948  0.7843  1.4451
 1023SOL     MW 3282   0.434   0.933   0.533 -0.6124  0.0747 -0.2528
 1024SOL     OW 3283   3.779   3.521   3.820 -0.1570  0.3475 -0.2228
 1024SOL    HW1 3284   3.739   3.526   3.733 -1.7404 -0.7444  0.4349
 1024SOL    HW2 3285   3.809   3.430   3.827 -0.3413  0.3489  0.5219
 1024SOL     MW 3286   3.778   3.510   3.810 -0.3834  0.2079 -0.0434
 1025SOL     OW 3287   5.278   5.419   3.822 -0.2447 -0.0781  0.0065
 1025SOL    HW1 3288   5.338   5.405   3.749  1.2466 -1.5720  1.4469
 1025SOL    HW2 3289   5.216   5.346   3.817 -0.6967  0.3225 -0.2864
 1025SOL     MW 3290   5.278   5.408   3.812 -0.1121 -0.2179  0.1533
 1026SOL     OW 3291   2.663   4.988   1.159  0.0942 -0.0487  0.0449
 1026SOL    HW1 3292   2.713   4.951   1.231  1.0935  0.5508 -0.3341
 1026SOL    HW2 3293   2.626   5.069   1.194 -3.0905 -1.9289  1.2569
 1026SOL     MW 3294   2.665   4.994   1.173 -0.1855 -0.2127  0.1516
 1027SOL     OW 3295   2.554   1.718   0.496 -1.0479 -0.6320  0.2800
 1027SOL    HW1 3296   2.629   1.698   0.551 -1.8992 -0.9264  1.3467
 1027SOL    HW2 3297   2.478   1.700   0.551 -1.9718 -2.9174 -1.6118
 1027SOL     MW 3298   2.554   1.713   0.510 -1.2753 -0.9623  0.1744
 1028SOL     OW 3299   1.834   4.939   0.609  0.6983 -0.1887 -0.1257
 1028SOL    HW1 3300   1.746   4.925   0.574  0.3867  1.6697 -0.1203
 1028SOL    HW2 3301   1.828   4.911   0.700  0.3305 -0.8411 -0.3445
 1028SOL     MW 3302   1.822   4.933   0.616  0.6114 -0.0348 -0.1531
 1029SOL     OW 3303   2.537   1.281   5.584 -0.8885 -0.4803  0.2018
 1029SOL    HW1 3304   2.493   1.362   5.607 -0.1872 -0.9438  3.3284
 1029SOL    HW2 3305   2.628   1.295   5.610 -0.4002 -1.6597 -0.8219
 1029SOL     MW 3306   2.543   1.293   5.590 -0.7362 -0.6906  0.4711
 1030SOL     OW 3307   2.889   2.460   2.798 -0.6172  0.1023  0.1707
 1030SOL    HW1 3308   2.844   2.544   2.791  0.9999  1.0483  0.8875
 1030SOL    HW2 3309   2.890   2.441   2.892  0.3950  0.0510  0.1511
 1030SOL     MW 3310   2.883   2.468   2.809 -0.2806  0.2172  0.2599
 1031SOL     OW 3311   5.999   3.237   2.250 -0.4173  0.1587  0.4288
 1031SOL    HW1 3312   5.937   3.279   2.190  0.9230  1.5072 -0.0226
 1031SOL    HW2 3313   5.943   3.187   2.310 -1.9973  1.9104  0.4698
 1031SOL     MW 3314   5.984   3.236   2.250 -0.4478  0.5555  0.3762
 1032SOL     OW 3315   5.824   2.351   3.487  0.3510 -0.0599 -0.1095
 1032SOL    HW1 3316   5.907   2.322   3.449 -0.0606 -1.6584  0.1773
 1032SOL    HW2 3317   5.815   2.442   3.458  1.3136 -0.4391 -1.6823
 1032SOL     MW 3318   5.833   2.359   3.478  0.4220 -0.3133 -0.2744
 1033SOL     OW 3319   0.109   2.930   2.954 -0.3188  0.3584 -0.5038
 1033SOL    HW1 3320   0.126   2.927   3.048  1.8076 -0.6957 -0.9140
 1033SOL    HW2 3321   0.096   2.839   2.928  0.9342  0.4715 -1.5644
 1033SOL     MW 3322   0.109   2.918   2.963  0.1138  0.2379 -0.6921
 1034SOL     OW 3323   1.393   5.224   2.703  0.5050  0.8006  0.6691
 1034SOL    HW1 3324   1.298   5.232   2.692  0.5006  2.9987  2.0104
 1034SOL    HW2 3325   1.421   5.166   2.632 -1.6293  1.3931 -0.6979
 1034SOL     MW 3326   1.385   5.217   2.692  0.2311  1.1578  0.6657
 1035SOL     OW 3327   4.183   1.727   4.958 -0.0591 -0.3980  0.1021
 1035SOL    HW1 3328   4.267   1.748   4.998 -0.4674  0.8133  0.3588
 1035SOL    HW2 3329   4.194   1.640   4.921  0.3130 -1.5834  2.9202
 1035SOL     MW 3330   4.195   1.719   4.958 -0.0634 -0.3946  0.4964
 1036SOL     OW 3331   0.111   5.979   0.215 -0.1361 -0.1967  0.3600
 1036SOL    HW1 3332   0.051   6.044   0.178  0.3191  0.9592  1.6152
 1036SOL    HW2 3333   0.060   5.936   0.284 -0.4504 -1.2116 -0.4978
 1036SOL     MW 3334   0.096   5.982   0.219 -0.1181 -0.1783  0.4109
 1037SOL     OW 3335   0.447   4.086   1.365  0.6247 -0.6360  0.9378
 1037SOL    HW1 3336   0.532   4.060   1.329  0.7615  0.6852  0.2743
 1037SOL    HW2 3337   0.414   4.151   1.303 -0.5917 -0.6833  1.5255
 1037SOL     MW 3338   0.453   4.091   1.353  0.4865 -0.4725  0.9282
 1038SOL     OW 3339   5.732   1.127   5.457  0.6413  0.1609  0.2719
 1038SOL    HW1 3340   5.663   1.133   5.391  0.2477 -0.8306  0.5770
 1038SOL    HW2 3341   5.685   1.116   5.539  1.1648 -1.8809  0.3280
 1038SOL     MW 3342   5.717   1.126   5.459  0.6580 -0.2272  0.3181
 1039SOL     OW 3343   1.811   5.423   1.525  0.1520  0.3287  0.2322
 1039SOL    HW1 3344   1.716   5.420   1.508  0.4154 -0.2415 -1.2346
 1039SOL    HW2 3345   1.829   5.343   1.574  0.6503 -2.2141 -3.8851
 1039SOL     MW 3346   1.801   5.413   1.529  0.2496 -0.0691 -0.4827
 1040SOL     OW 3347   1.561   4.750   5.549 -0.1260  0.4837 -0.0722
 1040SOL    HW1 3348   1.468   4.730   5.537  0.0586 -0.8505  0.6310
 1040SOL    HW2 3349   1.576   4.744   5.643  0.8738 -0.2571 -0.2645
 1040SOL     MW 3350   1.551   4.747   5.559  0.0255  0.2179 -0.0067
 1041SOL     OW 3351   3.018   5.467   3.543 -0.1358  0.4014 -0.1645
 1041SOL    HW1 3352   2.981   5.458   3.631 -0.9742 -0.5268 -0.6176
 1041SOL    HW2 3353   3.041   5.378   3.517  0.3673  0.7109 -0.7860
 1041SOL     MW 3354   3.016   5.455   3.551 -0.1786  0.3219 -0.3021
 1042SOL     OW 3355   5.710   3.011   1.570 -0.5073  0.4296  0.4163
 1042SOL    HW1 3356   5.768   3.000   1.494 -1.1648  2.6748 -0.4453
 1042SOL    HW2 3357   5.733   2.938   1.628  2.5567  0.7523 -0.2864
 1042SOL     MW 3358   5.720   3.000   1.567 -0.1998  0.7584  0.2160
 1043SOL     OW 3359   0.196   0.898   5.372  0.1915 -0.2506 -0.3652
 1043SOL    HW1 3360   0.255   0.932   5.305 -0.0120  1.1453  0.1530
 1043SOL    HW2 3361   0.109   0.900   5.330 -0.0386  1.2614  0.1480
 1043SOL     MW 3362   0.192   0.903   5.358  0.1360  0.1217 -0.2332
 1044SOL     OW 3363   0.848   1.244   1.302  0.1851  0.5921  0.3385
 1044SOL    HW1 3364   0.771   1.288   1.337  0.0043  1.5390 -1.2205
 1044SOL    HW2 3365   0.908   1.315   1.278  1.6599 -0.1302  1.7539
 1044SOL     MW 3366   0.846   1.259   1.304  0.3507  0.6210  0.3201
 1045SOL     OW 3367   2.859   2.591   1.589  0.1406  0.4300  0.1288
 1045SOL    HW1 3368   2.891   2.519   1.534  0.2899  0.2266  0.4829
 1045SOL    HW2 3369   2.926   2.659   1.581 -0.5967  1.0263 -1.1982
 1045SOL     MW 3370   2.872   2.590   1.581  0.0653  0.4802  0.0043
 1046SOL     OW 3371   0.944   4.336   5.149 -0.6510 -0.1799 -0.2158
 1046SOL    HW1 3372   0.910   4.380   5.227  0.7554 -0.4494  0.5599
 1046SOL    HW2 3373   1.017   4.283   5.181 -0.3310 -0.6315 -1.6522
 1046SOL     MW 3374   0.949   4.335   5.163 -0.4299 -0.2728 -0.3004
 1047SOL     OW 3375   4.811   4.447   1.040 -0.1717  0.1307  0.2884
 1047SOL    HW1 3376   4.789   4.491   0.958 -0.5245  2.0667  1.3921
 1047SOL    HW2 3377   4.906   4.452   1.046 -0.2922  1.8085  0.9734
 1047SOL     MW 3378   4.820   4.453   1.030 -0.2322  0.5932  0.5174
 1048SOL     OW 3379   4.668   2.645   4.667  0.1054  0.1600  0.0493
 1048SOL    HW1 3380   4.619   2.680   4.592  1.1864  0.1430 -0.6816
 1048SOL    HW2 3381   4.603   2.593   4.715 -0.6265  0.2221 -0.8385
 1048SOL     MW 3382   4.653   2.643   4.663  0.1502  0.1657 -0.1583
 1049SOL     OW 3383   3.981   1.739   3.916 -0.8545 -0.0407  0.4368
 1049SOL    HW1 3384   3.961   1.799   3.987  0.3693 -0.0658  0.8107
 1049SOL    HW2 3385   4.055   1.779   3.870  0.7402 -1.8000  1.3940
 1049SOL     MW 3386   3.988   1.752   3.919 -0.4938 -0.2691  0.6073
 1050SOL     OW 3387   5.291   5.297   3.372 -0.6489  0.2473  0.6897
 1050SOL    HW1 3388   5.350   5.233   3.330 -0.3685  0.4252  0.8114
 1050SOL    HW2 3389   5.204   5.272   3.342 -0.3733  0.8986 -0.6995
 1050SOL     MW 3390   5.287   5.285   3.363 -0.5779  0.3533  0.5274
 1051SOL     OW 3391   0.478   2.484   4.700  0.1784  0.5228 -0.2572
 1051SOL    HW1 3392   0.510   2.394   4.699  1.2083  0.8851 -0.6712
 1051SOL    HW2 3393   0.384   2.476   4.719 -0.8737 -1.0165 -5.2077
 1051SOL     MW 3394   0.470   2.472   4.702  0.1756  0.3719 -0.9437
 1052SOL     OW 3395   1.052   2.380   3.684 -0.0860 -0.4620 -0.0488
 1052SOL    HW1 3396   0.961   2.407   3.691 -0.1138 -0.1245 -1.5347
 1052SOL    HW2 3397   1.095   2.418   3.761 -1.1203 -0.3398  0.4749
 1052SOL     MW 3398   1.046   2.388   3.695 -0.2220 -0.4029 -0.1719
 1053SOL     OW 3399   1.156   0.318   2.246  0.0450  0.5536  0.5681
 1053SOL    HW1 3400   1.060   0.320   2.239 -0.1367 -1.4026  2.0335
 1053SOL    HW2 3401   1.173   0.331   2.339  1.2060  0.7714  0.3311
 1053SOL     MW 3402   1.146   0.320   2.257  0.1704  0.3310  0.7255
 1054SOL     OW 3403   1.436   0.122   1.242 -0.0193 -0.2928  0.0780
 1054SOL    HW1 3404   1.404   0.072   1.317 -1.8619 -2.9979 -2.4048
 1054SOL    HW2 3405   1.374   0.195   1.233 -0.4487 -0.6013  0.5267
 1054SOL     MW 3406   1.424   0.125   1.250 -0.3102 -0.6786 -0.1824
 1055SOL     OW 3407   1.518   1.021   5.021  0.4337 -0.2101  0.0109
 1055SOL    HW1 3408   1.453   1.011   4.951  0.7141 -0.6999 -0.1851
 1055SOL    HW2 3409   1.602   1.021   4.976  0.5010  2.3990  0.0739
 1055SOL     MW 3410   1.520   1.019   5.006  0.4781  0.0612 -0.0067
 1056SOL     OW 3411   1.956   1.154   4.723  0.1684 -0.5038  0.3395
 1056SOL    HW1 3412   1.922   1.128   4.637 -1.8025 -0.8916  1.2109
 1056SOL    HW2 3413   1.905   1.232   4.746 -1.5246 -2.1877  2.5140
 1056SOL     MW 3414   1.945   1.161   4.715 -0.3008 -0.7691  0.7291
 1057SOL     OW 3415   3.163   0.778   0.314  0.3579 -0.3115  0.2409
 1057SOL    HW1 3416   3.242   0.784   0.368  1.0183 -0.4513 -0.7187
 1057SOL    HW2 3417   3.151   0.866   0.278 -0.2139 -0.1603  0.7888
 1057SOL     MW 3418   3.172   0.790   0.317  0.3693 -0.3101  0.1882
 1058SOL     OW 3419   4.685   4.032   4.556  0.1928  0.0570  0.2509
 1058SOL    HW1 3420   4.628   4.108   4.541 -1.5075 -1.4197 -0.9319
 1058SOL    HW2 3421   4.739   4.026   4.477  1.2959  0.8448  0.9357
 1058SOL     MW 3422   4.685   4.041   4.544  0.1159 -0.0310  0.1874
 1059SOL     OW 3423   1.855   3.073   2.082 -0.2697  0.2602 -0.3449
 1059SOL    HW1 3424   1.904   3.116   2.012  1.6932 -1.8860 -0.3612
 1059SOL    HW2 3425   1.899   3.100   2.163  0.9029 -1.5862 -0.3505
 1059SOL     MW 3426   1.867   3.082   2.083  0.1317 -0.2508 -0.3479
 1060SOL     OW 3427   0.792   0.726   0.214 -0.2062 -0.0521 -0.7909
 1060SOL    HW1 3428   0.800   0.631   0.220  1.8415  0.1406  0.2623
 1060SOL    HW2 3429   0.698   0.743   0.219 -0.4666 -1.9032  1.3987
 1060SOL     MW 3430   0.781   0.716   0.216  0.0226 -0.2644 -0.3757
 1061SOL     OW 3431   4.083   3.017   0.767  0.3425  0.2193  0.2035
 1061SOL    HW1 3432   3.996   3.055   0.760  0.8699  1.1469 -1.7943
 1061SOL    HW2 3433   4.139   3.089   0.795  0.4660 -0.4161  1.6706
 1061SOL     MW 3434   4.079   3.031   0.770  0.4258  0.2568  0.1355
 1062SOL     OW 3435   4.040   1.923   2.047  0.3889 -0.9769 -0.3826
 1062SOL    HW1 3436   3.967   1.926   2.107 -0.1155 -0.0026 -1.0347
 1062SOL    HW2 3437   4.000   1.930   1.960  1.3025  0.3089 -0.7095
 1062SOL     MW 3438   4.026   1.924   2.043  0.4416 -0.6876 -0.5081
 1063SOL     OW 3439   1.261   0.811   3.816 -0.6524 -0.5360  0.5806
 1063SOL    HW1 3440   1.270   0.842   3.726 -2.9030 -1.7228 -0.0800
 1063SOL    HW2 3441   1.243   0.891   3.867 -1.8476 -0.1594 -0.4067
 1063SOL     MW 3442   1.260   0.825   3.811 -1.0935 -0.6397  0.3693
 1064SOL     OW 3443   0.634   3.718   1.174  0.3673  0.3249 -0.2705
 1064SOL    HW1 3444   0.548   3.758   1.183  0.0155 -0.2835 -0.9360
 1064SOL    HW2 3445   0.662   3.739   1.085  0.2996 -0.6718 -0.5323
 1064SOL     MW 3446   0.627   3.726   1.164  0.3136  0.1192 -0.3892
 1065SOL     OW 3447   3.303   3.481   0.232  0.2200 -0.1552  0.1963
 1065SOL    HW1 3448   3.372   3.536   0.268  1.0659 -1.8434  1.2112
 1065SOL    HW2 3449   3.285   3.518   0.145  1.6103  0.9752  0.3844
 1065SOL     MW 3450   3.309   3.493   0.225  0.5066 -0.2267  0.3503
 1066SOL     OW 3451   1.725   2.697   2.419 -0.0952 -0.6604  0.1224
 1066SOL    HW1 3452   1.707   2.615   2.465 -2.2645 -0.7870 -0.9340
 1066SOL    HW2 3453   1.703   2.765   2.483  0.4290 -0.8723  0.5347
 1066SOL     MW 3454   1.720   2.695   2.433 -0.3059 -0.7036  0.0398
 1067SOL     OW 3455   1.554   4.908   3.838  0.2385 -0.3532 -0.0050
 1067SOL    HW1 3456   1.570   4.998   3.867 -0.4096 -0.4525  0.6937
 1067SOL    HW2 3457   1.541   4.859   3.919  4.0639 -1.8082 -0.1933
 1067SOL     MW 3458   1.554   4.913   3.852  0.6453 -0.5527  0.0603
 1068SOL     OW 3459   0.836   5.182   1.831 -0.1329 -0.8771 -0.6086
 1068SOL    HW1 3460   0.768   5.219   1.775 -0.6886 -1.0657 -0.0691
 1068SOL    HW2 3461   0.794   5.106   1.872 -0.2981  0.2456  1.3781
 1068SOL     MW 3462   0.822   5.177   1.829 -0.2251 -0.7577 -0.2854
 1069SOL     OW 3463   2.412   5.294   0.312  0.4141  0.2237  0.2672
 1069SOL    HW1 3464   2.416   5.370   0.254  0.7654  1.1853  1.5514
 1069SOL    HW2 3465   2.361   5.324   0.387  0.7409 -0.7426  0.8799
 1069SOL     MW 3466   2.406   5.308   0.314  0.5007  0.2232  0.5100
 1070SOL     OW 3467   4.919   1.828   4.818  0.4596 -0.0135  0.2862
 1070SOL    HW1 3468   4.992   1.780   4.856 -0.3036 -2.5791 -1.3309
 1070SOL    HW2 3469   4.845   1.811   4.877  0.3688 -0.2151  0.1157
 1070SOL     MW 3470   4.919   1.820   4.830  0.3500 -0.3676  0.0572
 1071SOL     OW 3471   4.953   4.216   0.517  0.5591  0.2397  0.7353
 1071SOL    HW1 3472   4.959   4.210   0.612 -0.4574  0.4013  0.8193
 1071SOL    HW2 3473   4.923   4.305   0.500 -0.5132 -0.1840  0.3406
 1071SOL     MW 3474   4.950   4.227   0.527  0.2913  0.2060  0.6956
 1072SOL     OW 3475   1.277   0.960   5.698  0.5119 -0.1967  0.3330
 1072SOL    HW1 3476   1.222   0.916   5.633  1.5871  0.1984 -0.8662
 1072SOL    HW2 3477   1.366   0.951   5.664  1.0438  0.3627  1.5585
 1072SOL     MW 3478   1.282   0.953   5.685  0.7176 -0.0745  0.3362
 1073SOL     OW 3479   2.189   2.907   1.415  0.2912 -0.6173 -0.2274
 1073SOL    HW1 3480   2.237   2.977   1.369 -1.0851  1.2449  1.0664
 1073SOL    HW2 3481   2.216   2.916   1.507  0.4052 -2.0676 -0.1153
 1073SOL     MW 3482   2.199   2.917   1.421  0.1297 -0.5648 -0.0474
 1074SOL     OW 3483   0.736   3.246   2.209 -0.1105  0.6356 -0.2431
 1074SOL    HW1 3484   0.780   3.186   2.269 -0.0318 -0.0440 -0.9728
 1074SOL    HW2 3485   0.688   3.306   2.266 -1.4948 -1.1108  0.4659
 1074SOL     MW 3486   0.735   3.246   2.224 -0.2776  0.3250 -0.2458
 1075SOL     OW 3487   2.419   4.150   2.588 -0.3603 -0.2159  0.1621
 1075SOL    HW1 3488   2.383   4.075   2.540  0.6114  0.8710 -2.3829
 1075SOL    HW2 3489   2.363   4.223   2.562  1.1256  0.6816 -0.5786
 1075SOL     MW 3490   2.407   4.150   2.578 -0.0458  0.0386 -0.2587
 1076SOL     OW 3491   5.874   2.812   4.860  0.0859 -0.0413  0.2106
 1076SOL    HW1 3492   5.901   2.748   4.925 -1.2050 -0.9235 -0.0874
 1076SOL    HW2 3493   5.804   2.862   4.902 -0.0952  0.0259 -0.1641
 1076SOL     MW 3494   5.868   2.810   4.874 -0.1025 -0.1457  0.1245
 1077SOL     OW 3495   5.276   1.181   2.124 -0.4853 -0.6887 -0.1628
 1077SOL    HW1 3496   5.204   1.147   2.177 -1.3017 -1.6001 -1.8285
 1077SOL    HW2 3497   5.284   1.119   2.052  1.5395 -0.2300 -0.3525
 1077SOL     MW 3498   5.268   1.169   2.122 -0.3309 -0.7466 -0.4003
 1078SOL     OW 3499   2.557   3.336   2.224  0.2669  0.2141 -0.3307
 1078SOL    HW1 3500   2.499   3.286   2.281  2.0403 -1.1502  0.3043
 1078SOL    HW2 3501   2.600   3.270   2.170  1.1073  1.2235 -0.9047
 1078SOL     MW 3502   2.555   3.321   2.224  0.6015  0.1686 -0.3231
 1079SOL     OW 3503   2.494   0.298   0.152  0.1443  0.0588 -0.0872
 1079SOL    HW1 3504   2.450   0.282   0.236  0.6926 -0.4769  0.1030
 1079SOL    HW2 3505   2.587   0.295   0.173  0.2884 -0.2424 -0.7450
 1079SOL     MW 3506   2.500   0.295   0.166  0.2332 -0.0483 -0.1471
 1080SOL     OW 3507   4.646   0.133   1.910 -0.4165  0.4379 -0.5577
 1080SOL    HW1 3508   4.556   0.115   1.936  0.1503 -1.7198  0.0278
 1080SOL    HW2 3509   4.655   0.090   1.824  1.1044 -2.7439  1.0821
 1080SOL     MW 3510   4.635   0.125   1.902 -0.1488 -0.2457 -0.2730
 1081SOL     OW 3511   0.239   5.528   0.913 -0.1934  0.3470 -0.0542
 1081SOL    HW1 3512   0.232   5.603   0.854 -4.8370  0.3090  0.2684
 1081SOL    HW2 3513   0.223   5.565   1.000  0.6501 -0.5454  0.4861
 1081SOL     MW 3514   0.236   5.542   0.916 -0.6798  0.2279  0.0563
 1082SOL     OW 3515   1.493   3.280   1.192  0.4406  0.1994  0.1852
 1082SOL    HW1 3516   1.408   3.270   1.150  1.2834  0.0340 -1.5272
 1082SOL    HW2 3517   1.511   3.195   1.230 -0.1904  0.2591  0.6289
 1082SOL     MW 3518   1.484   3.268   1.191  0.4679  0.1860  0.0228
 1083SOL     OW 3519   2.158   4.904   0.292  0.5077  0.1238  0.3128
 1083SOL    HW1 3520   2.063   4.914   0.291  0.3068 -1.6745 -0.3131
 1083SOL    HW2 3521   2.190   4.976   0.237 -0.6234 -0.4753 -1.1684
 1083SOL     MW 3522   2.150   4.915   0.285  0.3374 -0.1826  0.0431
 1084SOL     OW 3523   1.458   4.295   3.577  0.6870  0.1001  0.1577
 1084SOL    HW1 3524   1.476   4.213   3.531  0.2667  0.6528 -1.0302
 1084SOL    HW2 3525   1.543   4.324   3.608  1.0257 -0.1515 -0.5176
 1084SOL     MW 3526   1.471   4.288   3.575  0.6765  0.1388 -0.0806
 1085SOL     OW 3527   4.120   2.846   2.105  0.2682  0.4672 -0.3081
 1085SOL    HW1 3528   4.090   2.919   2.158  0.3609 -1.8431  3.0562
 1085SOL    HW2 3529   4.216   2.849   2.111  0.3726  1.4461 -2.1426
 1085SOL     MW 3530   4.129   2.855   2.112  0.2937  0.2971 -0.1125
 1086SOL     OW 3531   3.804   3.057   0.913 -0.2963 -0.4640  0.1897
 1086SOL    HW1 3532   3.788   2.968   0.880 -0.2419 -0.3893 -0.0382
 1086SOL    HW2 3533   3.731   3.073   0.973  1.2783 -1.8153  2.5903
 1086SOL     MW 3534   3.792   3.047   0.916 -0.0880 -0.6275  0.4678
 1087SOL     OW 3535   2.118   1.574   2.855 -0.2806  0.1549  0.4085
 1087SOL    HW1 3536   2.140   1.571   2.948 -1.5530  1.6394  0.7669
 1087SOL    HW2 3537   2.194   1.535   2.812  0.6980  0.2453  2.0009
 1087SOL     MW 3538   2.131   1.569   2.861 -0.3183  0.3564  0.6585
 1088SOL     OW 3539   4.756   0.388   1.179 -0.0957  0.1906  0.1935
 1088SOL    HW1 3540   4.746   0.293   1.165 -1.8984  0.5731 -1.2099
 1088SOL    HW2 3541   4.846   0.397   1.212  0.5379 -1.8677 -0.8460
 1088SOL     MW 3542   4.766   0.377   1.182 -0.2456 -0.0239 -0.1191
 1089SOL     OW 3543   4.382   2.881   2.056  0.1335 -0.5383 -0.3549
 1089SOL    HW1 3544   4.438   2.943   2.102 -1.6590 -0.8872  2.4642
 1089SOL    HW2 3545   4.443   2.821   2.013  1.9060  0.4261  0.7384
 1089SOL     MW 3546   4.397   2.881   2.057  0.1311 -0.4594  0.1457
 1090SOL     OW 3547   5.321   1.992   0.409 -0.1110 -0.6001  0.9382
 1090SOL    HW1 3548   5.406   1.959   0.380 -0.1510 -0.5314  0.7442
 1090SOL    HW2 3549   5.305   1.947   0.492 -0.1503 -1.0349  0.6918
 1090SOL     MW 3550   5.330   1.982   0.416 -0.1216 -0.6469  0.8818
 1091SOL     OW 3551   3.330   1.247   0.395  0.4734 -0.2598  0.0029
 1091SOL    HW1 3552   3.414   1.253   0.350 -0.5596  0.5549 -1.8547
 1091SOL    HW2 3553   3.269   1.214   0.329 -0.8618 -0.0711  1.0993
 1091SOL     MW 3554   3.333   1.243   0.381  0.1700 -0.1312 -0.0945
 1092SOL     OW 3555   1.528   5.532   5.191  0.0500 -0.2205  0.2210
 1092SOL    HW1 3556   1.444   5.551   5.150  1.0019  0.0695 -1.6393
 1092SOL    HW2 3557   1.563   5.618   5.216 -0.1519 -0.3329  0.9042
 1092SOL     MW 3558   1.522   5.545   5.189  0.1460 -0.1984  0.0706
 1093SOL     OW 3559   5.949   0.683   1.861 -0.4841  0.2038 -0.4641
 1093SOL    HW1 3560   6.045   0.684   1.860 -0.3816 -0.5637  2.4532
 1093SOL    HW2 3561   5.924   0.768   1.823  1.4466  1.8857  1.8203
 1093SOL     MW 3562   5.958   0.694   1.856 -0.2241  0.3209  0.2017
 1094SOL     OW 3563   0.908   4.819   5.589  0.0190 -0.2445  0.3624
 1094SOL    HW1 3564   0.957   4.883   5.538  0.0740  1.1637  2.1175
 1094SOL    HW2 3565   0.944   4.734   5.563  2.2608  0.6585  0.4307
 1094SOL     MW 3566   0.918   4.816   5.580  0.3131  0.0510  0.5956
 1095SOL     OW 3567   4.044   3.330   2.661 -0.4640  0.0417  0.3543
 1095SOL    HW1 3568   4.050   3.335   2.756  0.5702  2.4701  0.1881
 1095SOL    HW2 3569   3.978   3.396   2.638 -1.3505 -1.1491 -0.5558
 1095SOL     MW 3570   4.036   3.339   2.670 -0.4454  0.2000  0.2165
 1096SOL     OW 3571   3.025   4.626   2.694 -1.0583 -0.5620 -0.0839
 1096SOL    HW1 3572   2.951   4.687   2.696 -0.7577 -0.2235  1.0792
 1096SOL    HW2 3573   3.039   4.604   2.786 -0.0751 -1.0750 -0.3596
 1096SOL     MW 3574   3.017   4.631   2.706 -0.8938 -0.5846  0.0298
 1097SOL     OW 3575   3.591   0.316   2.151 -0.0767  0.2196  0.0758
 1097SOL    HW1 3576   3.509   0.358   2.178 -1.2419 -1.6977 -0.4009
 1097SOL    HW2 3577   3.616   0.363   2.071 -0.5863  0.9662  0.3437
 1097SOL     MW 3578   3.584   0.328   2.144 -0.2913  0.0697  0.0491
 1098SOL     OW 3579   0.787   1.649   2.950  0.0953  0.3352  0.2719
 1098SOL    HW1 3580   0.788   1.694   2.866  0.1436 -0.2625 -0.0564
 1098SOL    HW2 3581   0.728   1.701   3.005 -0.2682  0.4948 -0.2685
 1098SOL     MW 3582   0.779   1.661   2.947  0.0548  0.2792  0.1609
 1099SOL     OW 3583   0.083   1.476   5.820 -0.0424  0.1281  0.6178
 1099SOL    HW1 3584   0.140   1.459   5.895  0.9344  0.5796  0.0009
 1099SOL    HW2 3585   0.116   1.416   5.752 -1.0570 -0.4332  0.6118
 1099SOL     MW 3586   0.095   1.466   5.821 -0.0472  0.1141  0.5383
 1100SOL     OW 3587   5.604   4.705   5.322  0.1234  0.0487 -0.1915
 1100SOL    HW1 3588   5.595   4.747   5.237 -1.3003 -0.1189 -0.1247
 1100SOL    HW2 3589   5.582   4.613   5.305  1.4550 -0.3316  0.0324
 1100SOL     MW 3590   5.600   4.698   5.309  0.1111 -0.0215 -0.1540
 1101SOL     OW 3591   3.129   4.374   4.839 -0.8448 -0.2825 -0.2348
 1101SOL    HW1 3592   3.181   4.402   4.764  0.7071 -1.2199  0.4875
 1101SOL    HW2 3593   3.068   4.447   4.853 -0.9098  0.0645 -2.1615
 1101SOL     MW 3594   3.128   4.387   4.831 -0.6542 -0.3581 -0.3891
 1102SOL     OW 3595   3.753   2.709   2.355 -0.1653 -0.1858 -0.3968
 1102SOL    HW1 3596   3.720   2.771   2.289 -1.9339 -1.5946 -0.8782
 1102SOL    HW2 3597   3.709   2.734   2.436 -0.6397 -0.6089 -0.5218
 1102SOL     MW 3598   3.743   2.720   2.357 -0.4520 -0.4201 -0.4742
 1103SOL     OW 3599   3.600   3.915   1.871 -0.0794  0.0491 -0.8993
 1103SOL    HW1 3600   3.687   3.888   1.842 -0.7773 -0.1526 -2.8702
 1103SOL    HW2 3601   3.592   4.006   1.842 -0.8412 -0.1991 -1.4779
 1103SOL     MW 3602   3.610   3.923   1.864 -0.2663 -0.0083 -1.2257
 1104SOL     OW 3603   4.198   0.098   5.430  0.1150 -0.0131 -0.6525
 1104SOL    HW1 3604   4.231   0.011   5.452  2.1985  0.3692 -2.0172
 1104SOL    HW2 3605   4.140   0.084   5.356  0.3540 -0.2682 -0.7921
 1104SOL     MW 3606   4.195   0.085   5.423  0.4120  0.0032 -0.8454
 1105SOL     OW 3607   4.874   0.343   4.052  0.5339  0.3480  0.6487
 1105SOL    HW1 3608   4.905   0.431   4.074  0.9360  0.1674  0.8248
 1105SOL    HW2 3609   4.786   0.338   4.088 -0.6046  1.6944 -1.9273
 1105SOL     MW 3610   4.867   0.353   4.060  0.4396  0.4972  0.3419
 1106SOL     OW 3611   1.693   1.421   0.757  0.4163  1.0518  0.2011
 1106SOL    HW1 3612   1.741   1.366   0.696 -0.8305 -1.2825  1.2539
 1106SOL    HW2 3613   1.719   1.511   0.735  2.5429  0.0486 -1.4977
 1106SOL     MW 3614   1.702   1.426   0.747  0.5289  0.6245  0.1184
 1107SOL     OW 3615   4.843   1.667   2.102  0.6114 -0.3304  0.1410
 1107SOL    HW1 3616   4.875   1.579   2.083 -1.1149 -0.5064 -2.1181
 1107SOL    HW2 3617   4.909   1.726   2.065  0.4611 -0.6822 -0.6930
 1107SOL     MW 3618   4.855   1.663   2.095  0.3710 -0.3980 -0.2551
 1108SOL     OW 3619   3.566   2.536   4.376  0.2864  0.5250 -0.0620
 1108SOL    HW1 3620   3.609   2.619   4.397  1.3224 -0.6326  2.6095
 1108SOL    HW2 3621   3.476   2.547   4.408  0.5357  0.4658  0.6588
 1108SOL     MW 3622   3.560   2.548   4.383  0.4511  0.3693  0.3724
 1109SOL     OW 3623   0.505   1.097   4.822  0.1189  0.0308 -0.2266
 1109SOL    HW1 3624   0.464   1.153   4.887  1.5305  1.1463 -0.2718
 1109SOL    HW2 3625   0.542   1.157   4.757  1.8884 -0.8986 -0.1397
 1109SOL     MW 3626   0.505   1.112   4.822  0.5261  0.0547 -0.2213
 1110SOL     OW 3627   1.711   1.449   5.372  0.8208  0.0436  0.0438
 1110SOL    HW1 3628   1.650   1.515   5.339 -0.6745 -0.9285  0.8195
 1110SOL    HW2 3629   1.795   1.474   5.335  0.3067  2.4762  0.4532
 1110SOL     MW 3630   1.714   1.461   5.363  0.5636  0.2306  0.1950
 1111SOL     OW 3631   3.155   3.273   5.768 -0.1188  0.5188  0.3987
 1111SOL    HW1 3632   3.096   3.248   5.840 -1.8229  1.4472 -0.6490
 1111SOL    HW2 3633   3.111   3.346   5.726  2.0892  1.5972 -0.0746
 1111SOL     MW 3634   3.142   3.279   5.772 -0.0541  0.7756  0.2041
 1112SOL     OW 3635   0.662   2.974   1.229 -0.2245  0.1577  0.4876
 1112SOL    HW1 3636   0.749   3.007   1.205  0.3565 -1.0677  0.8852
 1112SOL    HW2 3637   0.633   3.032   1.300  0.0083  0.9370 -0.0499
 1112SOL     MW 3638   0.670   2.986   1.235 -0.1203  0.1006  0.4697
 1113SOL     OW 3639   1.868   2.705   5.420 -0.2935  0.0709 -0.2913
 1113SOL    HW1 3640   1.878   2.795   5.389 -1.9563 -0.5613 -2.8300
 1113SOL    HW2 3641   1.951   2.662   5.397  0.0832  0.6713 -0.0655
 1113SOL     MW 3642   1.880   2.711   5.413 -0.4582  0.0670 -0.5870
 1114SOL     OW 3643   2.295   5.642   1.592 -0.1485 -0.0421 -0.2814
 1114SOL    HW1 3644   2.201   5.636   1.575 -0.7144  2.3954  1.7130
 1114SOL    HW2 3645   2.310   5.575   1.659 -0.1376 -1.4353 -1.6260
 1114SOL     MW 3646   2.285   5.632   1.598 -0.2196  0.0916 -0.1982
 1115SOL     OW 3647   4.317   4.044   0.184  0.8126 -0.4919  0.4846
 1115SOL    HW1 3648   4.345   3.997   0.105  0.0080 -0.5066  0.2051
 1115SOL    HW2 3649   4.355   3.994   0.256  0.4691 -1.2291  0.1605
 1115SOL     MW 3650   4.325   4.031   0.183  0.6657 -0.5879  0.4074
 1116SOL     OW 3651   3.376   5.449   0.274  0.3811  0.1013  0.1034
 1116SOL    HW1 3652   3.370   5.416   0.364 -0.5665  0.9156  0.3443
 1116SOL    HW2 3653   3.327   5.531   0.275  0.5593  0.2308 -1.1063
 1116SOL     MW 3654   3.369   5.455   0.286  0.2828  0.2222 -0.0206
 1117SOL     OW 3655   4.053   2.555   3.084 -0.0238 -0.1911  0.1951
 1117SOL    HW1 3656   4.110   2.551   3.161 -0.6967 -0.8713  0.6652
 1117SOL    HW2 3657   3.964   2.552   3.119 -0.4188  2.6788 -0.4084
 1117SOL     MW 3658   4.049   2.554   3.098 -0.1607  0.0894  0.1781
 1118SOL     OW 3659   4.058   4.929   3.285 -0.7363  0.0843 -0.3131
 1118SOL    HW1 3660   4.027   4.850   3.242 -1.8233  0.2893  0.0806
 1118SOL    HW2 3661   4.089   4.900   3.371 -0.7334  0.0245 -0.3350
 1118SOL     MW 3662   4.058   4.915   3.291 -0.8750  0.1025 -0.2656
 1119SOL     OW 3663   0.935   2.619   4.810 -0.1442  0.1386  0.4926
 1119SOL    HW1 3664   0.890   2.540   4.782  0.3278  0.2526 -0.6318
 1119SOL    HW2 3665   0.917   2.683   4.741  0.5996  0.5916  0.7095
 1119SOL     MW 3666   0.927   2.617   4.798  0.0114  0.2112  0.3772
 1120SOL     OW 3667   0.835   3.984   3.352  0.2770 -0.3152 -0.1811
 1120SOL    HW1 3668   0.924   4.015   3.367 -0.0268 -0.2647  1.6457
 1120SOL    HW2 3669   0.821   3.917   3.418 -0.4345 -1.6007 -1.5920
 1120SOL     MW 3670   0.844   3.979   3.362  0.1471 -0.4735 -0.1278
 1121SOL     OW 3671   2.792   5.218   1.983 -0.5685  0.0290  0.0340
 1121SOL    HW1 3672   2.735   5.157   1.936 -1.0068  0.5367 -0.1126
 1121SOL    HW2 3673   2.800   5.181   2.071  0.0894 -0.8188 -0.3853
 1121SOL     MW 3674   2.785   5.206   1.989 -0.5405 -0.0143 -0.0385
 1122SOL     OW 3675   3.478   1.152   5.464 -0.1690  0.1118  0.3989
 1122SOL    HW1 3676   3.564   1.117   5.488  0.6298  0.4723 -1.8194
 1122SOL    HW2 3677   3.458   1.216   5.533  0.7228 -0.9268  1.6395
 1122SOL     MW 3678   3.486   1.156   5.476  0.0474  0.0250  0.2737
 1123SOL     OW 3679   1.650   4.492   1.154 -0.0993  0.1699  0.2901
 1123SOL    HW1 3680   1.714   4.560   1.173  0.9876 -0.6794 -0.2583
 1123SOL    HW2 3681   1.566   4.529   1.183  0.5769  1.4312  0.6834
 1123SOL     MW 3682   1.647   4.505   1.160  0.1264  0.2227  0.2701
 1124SOL     OW 3683   1.247   1.766   3.733  0.0342 -0.2440 -0.6269
 1124SOL    HW1 3684   1.260   1.709   3.809 -0.8125 -1.2250 -1.1887
 1124SOL    HW2 3685   1.325   1.821   3.730  0.8186 -1.2900  0.0277
 1124SOL     MW 3686   1.259   1.766   3.742  0.0261 -0.5034 -0.6151
 1125SOL     OW 3687   4.747   4.006   0.177 -0.1002 -0.5912  0.0747
 1125SOL    HW1 3688   4.724   3.924   0.221  0.1869 -0.1101  1.1514
 1125SOL    HW2 3689   4.835   3.991   0.143  0.3287 -0.4319  1.0784
 1125SOL     MW 3690   4.755   3.994   0.178 -0.0086 -0.5095  0.3410
 1126SOL     OW 3691   0.116   1.744   4.257 -0.3056  0.7950  0.2744
 1126SOL    HW1 3692   0.108   1.822   4.312 -1.7965 -0.0116  1.2149
 1126SOL    HW2 3693   0.057   1.760   4.184  0.0812  0.9315 -0.0147
 1126SOL     MW 3694   0.108   1.756   4.255 -0.4469  0.7092  0.3576
 1127SOL     OW 3695   1.589   1.036   1.912  0.3223 -0.3977 -0.1218
 1127SOL    HW1 3696   1.595   1.115   1.859  2.6239  0.5757  1.5067
 1127SOL    HW2 3697   1.567   0.966   1.850  1.9072  0.8713 -2.1762
 1127SOL     MW 3698   1.587   1.037   1.898  0.8198 -0.1106 -0.1764
 1128SOL     OW 3699   4.935   3.591   0.054  0.7867  0.0913  0.4179
 1128SOL    HW1 3700   5.006   3.639   0.097  0.3191  3.5955 -2.4695
 1128SOL    HW2 3701   4.972   3.564  -0.030 -0.2316 -1.2031  0.3712
 1128SOL     MW 3702   4.949   3.594   0.049  0.5965  0.3741  0.0424
 1129SOL     OW 3703   5.004   2.296   3.697 -0.0288 -0.4515 -0.2543
 1129SOL    HW1 3704   5.044   2.382   3.680  1.1268 -0.7904  0.6961
 1129SOL    HW2 3705   4.933   2.315   3.758  1.5219 -0.4238  1.5776
 1129SOL     MW 3706   5.000   2.310   3.703  0.3171 -0.4914  0.1023
 1130SOL     OW 3707   1.755   2.105   5.387 -0.0317 -0.0311  0.6230
 1130SOL    HW1 3708   1.668   2.141   5.404 -0.0116  0.8029 -0.9389
 1130SOL    HW2 3709   1.761   2.030   5.445 -2.5918 -1.2818 -0.6183
 1130SOL     MW 3710   1.744   2.100   5.396 -0.3568 -0.0842  0.2646
 1131SOL     OW 3711   0.552   3.052   0.532  0.1013  0.6731 -0.4067
 1131SOL    HW1 3712   0.569   3.071   0.439 -2.7899 -0.5919 -1.2580
 1131SOL    HW2 3713   0.476   3.106   0.553  0.0305  0.0642  0.9017
 1131SOL     MW 3714   0.544   3.062   0.523 -0.2778  0.4332 -0.3481
 1132SOL     OW 3715   2.514   1.971   4.685 -0.2974 -0.3494 -0.5377
 1132SOL    HW1 3716   2.578   2.002   4.621  1.2468  1.8009  1.9687
 1132SOL    HW2 3717   2.489   2.049   4.735 -2.8204 -1.6511  0.3476
 1132SOL     MW 3718   2.519   1.985   4.683 -0.4225 -0.2408 -0.1030
 1133SOL     OW 3719   0.962   0.062   4.622 -0.0629  0.4058  0.1051
 1133SOL    HW1 3720   0.961  -0.019   4.572 -3.5847  0.3669  0.0795
 1133SOL    HW2 3721   0.951   0.131   4.557  1.3558  0.7945  0.2735
 1133SOL     MW 3722   0.960   0.060   4.607 -0.3321  0.4506  0.1240
 1134SOL     OW 3723   0.838   5.731   4.158  0.5644  0.4989 -0.4232
 1134SOL    HW1 3724   0.764   5.742   4.097  0.2809 -1.1236 -0.4099
 1134SOL    HW2 3725   0.797   5.723   4.244  0.6028 -2.0757 -0.6047
 1134SOL     MW 3726   0.823   5.731   4.161  0.5330 -0.0381 -0.4439
 1135SOL     OW 3727   3.892   3.443   4.254  0.3379 -0.3613 -0.6423
 1135SOL    HW1 3728   3.911   3.486   4.337  0.6421 -0.4315 -0.6729
 1135SOL    HW2 3729   3.839   3.367   4.277  1.1693 -0.8755 -0.4164
 1135SOL     MW 3730   3.888   3.439   4.267  0.4833 -0.4361 -0.6180
 1136SOL     OW 3731   5.836   1.504   3.029  0.4077  0.9575 -0.7625
 1136SOL    HW1 3732   5.757   1.541   3.069 -0.0263 -1.9119  1.1705
 1136SOL    HW2 3733   5.853   1.424   3.079  3.6554  0.7043 -2.1774
 1136SOL     MW 3734   5.828   1.498   3.040  0.7677  0.5578 -0.6959
 1137SOL     OW 3735   5.524   3.577   1.874 -0.3026 -0.1426 -0.7889
 1137SOL    HW1 3736   5.528   3.549   1.965  1.7121  1.3376 -0.3925
 1137SOL    HW2 3737   5.532   3.497   1.823 -0.1405 -0.8346  0.3229
 1137SOL     MW 3738   5.525   3.563   1.879 -0.0243 -0.0417 -0.5958
 1138SOL     OW 3739   2.442   2.274   3.846 -0.0001 -0.0806  0.6264
 1138SOL    HW1 3740   2.507   2.342   3.865  0.3260 -0.5498  1.2358
 1138SOL    HW2 3741   2.465   2.242   3.759 -0.3274  0.7843  0.2221
 1138SOL     MW 3742   2.453   2.279   3.838 -0.0002 -0.0298  0.6528
 1139SOL     OW 3743   1.913   2.745   2.741 -0.1657  0.2331  0.1009
 1139SOL    HW1 3744   1.942   2.769   2.653 -0.6762 -0.1569 -0.1788
 1139SOL    HW2 3745   1.892   2.652   2.735  1.1176 -0.1299  1.0011
 1139SOL     MW 3746   1.914   2.736   2.729 -0.0666  0.1366  0.1802
 1140SOL     OW 3747   0.875   4.997   2.099  0.2482  0.1126  0.6986
 1140SOL    HW1 3748   0.870   5.093   2.102 -1.6582  0.1616 -1.9113
 1140SOL    HW2 3749   0.962   4.979   2.064  0.6874  0.8832  1.3632
 1140SOL     MW 3750   0.885   5.007   2.095  0.0603  0.2174  0.4494
 1141SOL     OW 3751   2.777   3.245   4.846  0.0455  0.0078 -0.0941
 1141SOL    HW1 3752   2.848   3.308   4.853 -1.0577  1.3195 -0.5770
 1141SOL    HW2 3753   2.812   3.175   4.791  0.7376  0.9471 -0.8621
 1141SOL     MW 3754   2.790   3.244   4.840 -0.0074  0.2959 -0.2542
 1142SOL     OW 3755   4.411   5.043   3.518 -0.3256  0.2163  0.6038
 1142SOL    HW1 3756   4.483   5.088   3.560  0.8624  0.8051 -1.9490
 1142SOL    HW2 3757   4.378   4.982   3.584  0.3472  2.2990  2.8931
 1142SOL     MW 3758   4.416   5.041   3.532 -0.0873  0.5584  0.5701
 1143SOL     OW 3759   3.725   3.288   2.733 -0.5820 -0.3075  0.2325
 1143SOL    HW1 3760   3.655   3.353   2.743  1.7851  2.4398 -0.5552
 1143SOL    HW2 3761   3.796   3.320   2.788  1.2662 -1.3319 -1.4898
 1143SOL     MW 3762   3.725   3.300   2.742 -0.0424 -0.0870 -0.0887
 1144SOL     OW 3763   5.063   2.050   0.361 -0.1522 -0.4266  0.6981
 1144SOL    HW1 3764   5.150   2.045   0.401  0.3031 -0.7437 -0.3114
 1144SOL    HW2 3765   5.010   2.098   0.425  0.1384 -2.2921  2.3651
 1144SOL     MW 3766   5.067   2.056   0.374 -0.0567 -0.7060  0.7823
 1145SOL     OW 3767   5.744   0.403   2.499  0.2930 -0.3958  0.0683
 1145SOL    HW1 3768   5.740   0.430   2.591  0.2289 -1.8016  0.4874
 1145SOL    HW2 3769   5.695   0.321   2.496 -1.8095  0.8821 -1.7096
 1145SOL     MW 3770   5.737   0.396   2.511  0.0157 -0.4122 -0.1056
 1146SOL     OW 3771   4.583   1.180   4.289  0.5262  0.0431  0.0427
 1146SOL    HW1 3772   4.526   1.110   4.259 -0.7775  1.3497 -0.5859
 1146SOL    HW2 3773   4.604   1.157   4.380 -0.3110 -0.8694  0.0085
 1146SOL     MW 3774   4.579   1.168   4.297  0.2518  0.0936 -0.0424
 1147SOL     OW 3775   0.823   3.007   2.864 -0.6601  0.0338 -0.2302
 1147SOL    HW1 3776   0.843   3.080   2.805 -0.4339 -0.0263 -0.2244
 1147SOL    HW2 3777   0.907   2.981   2.900 -0.7760 -0.0578 -0.0280
 1147SOL     MW 3778   0.836   3.013   2.861 -0.6461  0.0145 -0.2034
 1148SOL     OW 3779   5.175   3.269   5.714 -0.1836  0.1233 -0.6405
 1148SOL    HW1 3780   5.087   3.232   5.722  0.1197 -1.3162 -3.3417
 1148SOL    HW2 3781   5.161   3.363   5.712 -1.7793 -0.1048 -1.7089
 1148SOL     MW 3782   5.162   3.276   5.715 -0.3495 -0.0904 -1.1230
 1149SOL     OW 3783   1.759   2.237   2.303 -0.2418 -0.0852  0.1834
 1149SOL    HW1 3784   1.744   2.149   2.269  0.0460  0.2431 -0.8150
 1149SOL    HW2 3785   1.842   2.264   2.264  1.2747 -0.5497  2.9096
 1149SOL     MW 3786   1.768   2.229   2.294 -0.0108 -0.1028  0.4044
 1150SOL     OW 3787   1.893   2.933   4.070  0.1103  0.2107 -0.1630
 1150SOL    HW1 3788   1.806   2.946   4.032  0.4516  1.6969 -0.4505
 1150SOL    HW2 3789   1.935   3.018   4.065  1.3344 -0.3247  0.6438
 1150SOL     MW 3790   1.888   2.945   4.064  0.3105  0.3324 -0.0963
 1151SOL     OW 3791   2.678   4.483   3.956  0.2032 -0.4199  0.0820
 1151SOL    HW1 3792   2.605   4.511   3.903  1.3212  3.0481  0.2818
 1151SOL    HW2 3793   2.730   4.426   3.899 -0.6726  0.1101 -1.2316
 1151SOL     MW 3794   2.676   4.479   3.942  0.2341  0.0920 -0.0606
 1152SOL     OW 3795   5.450   0.068   3.351  0.3738 -0.2006 -0.3771
 1152SOL    HW1 3796   5.425  -0.024   3.344  1.4625 -0.5551  0.2943
 1152SOL    HW2 3797   5.522   0.078   3.288  1.2564 -0.1738  0.6301
 1152SOL     MW 3798   5.456   0.058   3.342  0.6261 -0.2426 -0.1621
 1153SOL     OW 3799   4.349   3.414   1.576 -0.2021  0.2801  0.1386
 1153SOL    HW1 3800   4.388   3.378   1.656  2.0307  2.2586  0.0183
 1153SOL    HW2 3801   4.274   3.464   1.606 -1.6370 -2.0876  0.5839
 1153SOL     MW 3802   4.345   3.416   1.590 -0.1001  0.2303  0.1802
 1154SOL     OW 3803   4.332   2.797   2.737  0.3925  0.1564  0.4674
 1154SOL    HW1 3804   4.391   2.727   2.709 -0.1754  0.4142 -1.4647
 1154SOL    HW2 3805   4.369   2.829   2.818  2.8048  0.1688 -0.6097
 1154SOL     MW 3806   4.344   2.792   2.744  0.6289  0.1910  0.0823
 1155SOL     OW 3807   1.978   2.171   1.474  0.5932  0.5671  0.0564
 1155SOL    HW1 3808   1.983   2.088   1.522 -0.6273  1.1330  1.2108
 1155SOL    HW2 3809   1.975   2.145   1.382 -0.0100 -0.6928  0.4142
 1155SOL     MW 3810   1.978   2.157   1.468  0.3598  0.4783  0.2501
 1156SOL     OW 3811   2.155   4.326   5.423 -0.5505 -0.1713  0.1830
 1156SOL    HW1 3812   2.106   4.405   5.448  0.7873  1.0629 -1.0063
 1156SOL    HW2 3813   2.230   4.325   5.482  0.8381  0.9261 -1.4976
 1156SOL     MW 3814   2.159   4.336   5.434 -0.2015  0.1268 -0.1845
 1157SOL     OW 3815   4.890   4.805   3.660 -0.1122  0.0566 -0.2109
 1157SOL    HW1 3816   4.890   4.852   3.577  0.3036  0.6192  0.1028
 1157SOL    HW2 3817   4.806   4.760   3.663 -0.3944  0.5513 -0.6474
 1157SOL     MW 3818   4.879   4.805   3.650 -0.0954  0.1922 -0.2267
 1158SOL     OW 3819   3.890   1.460   0.916  0.2361 -0.8339  0.7222
 1158SOL    HW1 3820   3.812   1.433   0.869  2.3022 -2.5356 -1.8172
 1158SOL    HW2 3821   3.943   1.380   0.925  1.3661  0.1073  3.0917
 1158SOL     MW 3822   3.887   1.446   0.911  0.6452 -0.9313  0.7005
 1159SOL     OW 3823   1.094   0.380   2.939  0.4551  0.3382  0.0148
 1159SOL    HW1 3824   1.166   0.385   2.877  0.5524  0.2116  0.1174
 1159SOL    HW2 3825   1.136   0.377   3.025  0.4000 -1.6777 -0.0079
 1159SOL     MW 3826   1.108   0.380   2.942  0.4605  0.0640  0.0248
 1160SOL     OW 3827   4.724   3.209   0.483  0.5710 -0.5704 -0.1735
 1160SOL    HW1 3828   4.628   3.202   0.490  0.5442 -0.1418 -0.0824
 1160SOL    HW2 3829   4.757   3.173   0.565  0.5022 -0.9659 -0.3154
 1160SOL     MW 3830   4.716   3.203   0.494  0.5593 -0.5662 -0.1800
 1161SOL     OW 3831   3.840   5.618   2.751  0.0238  0.2539 -0.0508
 1161SOL    HW1 3832   3.821   5.700   2.796 -0.3332  0.2655 -0.2273
 1161SOL    HW2 3833   3.936   5.609   2.758  0.1792  1.1797 -0.8826
 1161SOL     MW 3834   3.850   5.627   2.758 -0.0021  0.3738 -0.1800
 1162SOL     OW 3835   5.734   1.512   4.768  0.3706  0.1394  0.0577
 1162SOL    HW1 3836   5.797   1.555   4.826  1.3505 -1.4214  0.1814
 1162SOL    HW2 3837   5.736   1.420   4.795 -0.8000 -0.2133 -1.0032
 1162SOL     MW 3838   5.742   1.506   4.779  0.3462 -0.1055 -0.0625
 1163SOL     OW 3839   5.623   4.321   0.423  0.1770 -0.3970 -0.1690
 1163SOL    HW1 3840   5.556   4.380   0.457 -0.5739 -1.6090  0.4801
 1163SOL    HW2 3841   5.665   4.371   0.353 -2.4983 -0.1806 -1.7075
 1163SOL     MW 3842   5.620   4.335   0.418 -0.2618 -0.5245 -0.2829
 1164SOL     OW 3843   2.443   2.930   3.974 -0.5381  0.6894  0.2257
 1164SOL    HW1 3844   2.472   2.854   3.923  1.0827  1.0999  0.5148
 1164SOL    HW2 3845   2.463   2.907   4.065  0.7091  1.7720  0.2415
 1164SOL     MW 3846   2.449   2.917   3.979 -0.1709  0.8802  0.2651
 1165SOL     OW 3847   3.768   1.088   1.487  0.2539 -0.0766 -0.5667
 1165SOL    HW1 3848   3.818   1.150   1.539 -0.4814 -0.4365  0.5765
 1165SOL    HW2 3849   3.733   1.140   1.414 -0.8792  0.9979  0.7315
 1165SOL     MW 3850   3.770   1.102   1.484  0.0150  0.0150 -0.2543
 1166SOL     OW 3851   0.852   4.607   2.588  0.5724 -0.5806  0.5628
 1166SOL    HW1 3852   0.798   4.637   2.516 -0.2095 -2.7421  0.2263
 1166SOL    HW2 3853   0.808   4.529   2.621  0.8448  0.4138  3.4681
 1166SOL     MW 3854   0.840   4.601   2.583  0.5071 -0.7300  0.8917
 1167SOL     OW 3855   1.596   4.523   4.165  0.0119 -0.1054  0.1806
 1167SOL    HW1 3856   1.576   4.480   4.248  0.4586  0.1081  0.4002
 1167SOL    HW2 3857   1.571   4.459   4.098 -0.8647 -0.0681  0.4614
 1167SOL     MW 3858   1.590   4.509   4.167 -0.0429 -0.0734  0.2446
 1168SOL     OW 3859   1.450   2.410   4.686  0.0329  0.3490  0.1237
 1168SOL    HW1 3860   1.481   2.501   4.681  1.8614 -0.2917 -0.5776
 1168SOL    HW2 3861   1.383   2.404   4.617 -1.1305  1.5373  1.1237
 1168SOL     MW 3862   1.446   2.421   4.676  0.1180  0.4191  0.1626
 1169SOL     OW 3863   4.263   0.913   5.796  0.0646  0.4608  0.2710
 1169SOL    HW1 3864   4.172   0.908   5.767  0.3023  0.9660 -0.5900
 1169SOL    HW2 3865   4.275   1.004   5.821  0.6975  0.7014 -0.8758
 1169SOL     MW 3866   4.253   0.924   5.796  0.1764  0.5563  0.0143
 1170SOL     OW 3867   5.354   2.613   3.669 -0.1005  0.4347  0.1920
 1170SOL    HW1 3868   5.260   2.608   3.655 -0.0645  2.1346 -0.8134
 1170SOL    HW2 3869   5.392   2.573   3.591  0.0359 -3.5633  2.1913
 1170SOL     MW 3870   5.347   2.607   3.657 -0.0787  0.1407  0.3192
 1171SOL     OW 3871   0.519   5.453   0.880 -0.1645 -0.2105 -0.4237
 1171SOL    HW1 3872   0.465   5.402   0.819 -0.6711 -2.1782  1.6076
 1171SOL    HW2 3873   0.456   5.499   0.936  0.2972  0.6783 -0.6183
 1171SOL     MW 3874   0.504   5.452   0.879 -0.1703 -0.3486 -0.1886
 1172SOL     OW 3875   4.420   0.973   3.681 -0.2439 -0.2629 -0.0405
 1172SOL    HW1 3876   4.399   1.066   3.691  0.0794 -0.2487  0.5474
 1172SOL    HW2 3877   4.464   0.950   3.763  2.2832 -0.2115 -1.3124
 1172SOL     MW 3878   4.423   0.982   3.693  0.1206 -0.2545 -0.1280
 1173SOL     OW 3879   2.821   4.257   3.860 -0.6761 -0.0507  0.0868
 1173SOL    HW1 3880   2.914   4.242   3.879 -1.0162 -0.9213  1.1635
 1173SOL    HW2 3881   2.817   4.269   3.766  0.4928 -0.3827 -0.0156
 1173SOL     MW 3882   2.833   4.256   3.851 -0.5701 -0.2041  0.2117
 1174SOL     OW 3883   2.342   0.077   3.982  0.1653 -0.0379  0.1636
 1174SOL    HW1 3884   2.291  -0.001   3.959 -0.9148  0.1386  1.9219
 1174SOL    HW2 3885   2.433   0.049   3.973 -0.2238 -1.1980 -0.2311
 1174SOL     MW 3886   2.347   0.063   3.978 -0.0229 -0.1639  0.3381
 1175SOL     OW 3887   2.111   2.972   1.040  0.6816  0.2971  0.5200
 1175SOL    HW1 3888   2.199   3.000   1.016 -0.3315  2.5270 -0.8540
 1175SOL    HW2 3889   2.090   3.022   1.119  1.1033 -1.1989  1.5998
 1175SOL     MW 3890   2.119   2.982   1.047  0.6058  0.3910  0.4823
 1176SOL     OW 3891   4.066   5.550   4.755  0.5184  0.3840  0.1732
 1176SOL    HW1 3892   4.094   5.622   4.810  0.4897  1.0991 -0.7274
 1176SOL    HW2 3893   3.983   5.580   4.716  2.4163  1.4831 -3.1856
 1176SOL     MW 3894   4.059   5.563   4.757  0.7582  0.6161 -0.3719
 1177SOL     OW 3895   5.434   3.837   0.910 -0.1870 -0.1688  0.4814
 1177SOL    HW1 3896   5.357   3.878   0.870  1.1497 -0.3427 -2.4289
 1177SOL    HW2 3897   5.430   3.746   0.883  0.3528 -0.4802  1.4154
 1177SOL     MW 3898   5.424   3.831   0.901  0.0529 -0.2308  0.2284
 1178SOL     OW 3899   3.659   1.367   0.826 -0.2025  0.1496 -0.3505
 1178SOL    HW1 3900   3.637   1.367   0.733 -1.1242 -0.2091 -0.1437
 1178SOL    HW2 3901   3.594   1.425   0.866 -0.4192 -0.4542  0.1955
 1178SOL     MW 3902   3.648   1.374   0.819 -0.3481  0.0263 -0.2542
 1179SOL     OW 3903   4.467   4.838   4.725 -0.0717  0.0959 -0.5892
 1179SOL    HW1 3904   4.488   4.919   4.680  1.3766 -0.1781 -0.4294
 1179SOL    HW2 3905   4.492   4.853   4.816 -1.8768  0.2339 -0.0917
 1179SOL     MW 3906   4.473   4.850   4.731 -0.1173  0.0787 -0.5054
 1180SOL     OW 3907   4.730   2.545   0.589  0.6082  0.5338 -0.1001
 1180SOL    HW1 3908   4.716   2.636   0.563 -0.9125  0.1857 -0.5159
 1180SOL    HW2 3909   4.642   2.511   0.607  1.2515 -0.5398  1.1229
 1180SOL     MW 3910   4.717   2.552   0.588  0.4959  0.3519  0.0032
 1181SOL     OW 3911   3.708   3.267   0.239 -0.1693 -0.2685 -0.5651
 1181SOL    HW1 3912   3.716   3.358   0.211 -0.0725  0.4389  1.6160
 1181SOL    HW2 3913   3.642   3.229   0.181 -0.8199  1.4271 -0.9614
 1181SOL     MW 3914   3.700   3.274   0.228 -0.2401  0.0393 -0.3366
 1182SOL     OW 3915   0.674   4.508   2.222  0.2963  0.1004  0.3294
 1182SOL    HW1 3916   0.685   4.479   2.131 -1.1598 -0.6329  0.3705
 1182SOL    HW2 3917   0.733   4.583   2.230  2.0523 -1.1335 -0.5883
 1182SOL     MW 3918   0.683   4.514   2.211  0.3347 -0.1512  0.2170
 1183SOL     OW 3919   3.996   4.200   0.540 -0.1429 -0.2755  0.1712
 1183SOL    HW1 3920   4.024   4.287   0.510 -0.4526  0.0634  0.8523
 1183SOL    HW2 3921   3.922   4.178   0.485  0.0765 -0.2026 -0.1524
 1183SOL     MW 3922   3.990   4.208   0.529 -0.1547 -0.2222  0.2169
 1184SOL     OW 3923   4.622   1.251   5.101  0.8675 -0.1164 -0.4491
 1184SOL    HW1 3924   4.557   1.185   5.077  0.5083  0.6393 -1.5858
 1184SOL    HW2 3925   4.573   1.317   5.149  1.1603 -0.4829  0.3669
 1184SOL     MW 3926   4.607   1.251   5.104  0.8588 -0.0665 -0.4902
 1185SOL     OW 3927   1.358   0.095   2.752 -0.0369 -0.3572  0.0325
 1185SOL    HW1 3928   1.437   0.042   2.762  0.9026  0.8629 -0.7640
 1185SOL    HW2 3929   1.313   0.057   2.676  1.2042  0.6585 -1.2435
 1185SOL     MW 3930   1.363   0.083   2.744  0.2422 -0.0710 -0.2329
 1186SOL     OW 3931   4.342   1.562   0.144  0.2385 -0.5997  0.0784
 1186SOL    HW1 3932   4.382   1.623   0.082 -0.8305  0.8500  0.7927
 1186SOL    HW2 3933   4.415   1.532   0.198  1.3386 -2.5103 -2.3576
 1186SOL     MW 3934   4.357   1.566   0.143  0.2427 -0.6588 -0.1420
 1187SOL     OW 3935   3.547   4.115   5.176 -0.4897 -0.4272 -0.1470
 1187SOL    HW1 3936   3.493   4.150   5.106  0.4561  0.1773 -0.5869
 1187SOL    HW2 3937   3.555   4.022   5.157  1.7076  0.1333 -2.1750
 1187SOL     MW 3938   3.541   4.108   5.165 -0.0873 -0.2775 -0.4630
 1188SOL     OW 3939   1.076   2.220   1.697 -0.2366  0.2680  0.3684
 1188SOL    HW1 3940   0.994   2.255   1.661 -0.3900  1.5168  1.8664
 1188SOL    HW2 3941   1.077   2.251   1.787  1.3776 -0.6537  0.6779
 1188SOL     MW 3942   1.065   2.228   1.704 -0.0496  0.3099  0.5997
 1189SOL     OW 3943   4.307   0.031   5.089  0.3178  0.0169 -0.5981
 1189SOL    HW1 3944   4.274   0.026   5.178 -1.8098 -1.1215 -1.4110
 1189SOL    HW2 3945   4.228   0.031   5.034  1.6273 -3.0764 -2.6267
 1189SOL     MW 3946   4.293   0.031   5.093  0.2127 -0.5248 -0.9618
 1190SOL     OW 3947   3.431   2.497   2.645 -0.1155  0.0687  0.0861
 1190SOL    HW1 3948   3.433   2.408   2.610 -0.8203 -0.1955  0.6896
 1190SOL    HW2 3949   3.420   2.552   2.567  0.0410 -0.3938 -0.2688
 1190SOL     MW 3950   3.430   2.492   2.630 -0.1855 -0.0243  0.1180
 1191SOL     OW 3951   3.629   2.646   2.795 -0.0473 -0.7857 -0.0709
 1191SOL    HW1 3952   3.569   2.572   2.784  0.5759 -1.1966 -0.6987
 1191SOL    HW2 3953   3.615   2.674   2.885 -1.3207 -0.7633 -0.2671
 1191SOL     MW 3954   3.619   2.640   2.805 -0.1304 -0.8352 -0.1762
 1192SOL     OW 3955   0.611   0.405   2.743 -0.0612 -0.1923  0.0376
 1192SOL    HW1 3956   0.647   0.493   2.728  0.0187  0.1036  1.8499
 1192SOL    HW2 3957   0.630   0.387   2.835 -1.0211 -1.6868 -0.0432
 1192SOL     MW 3958   0.618   0.414   2.753 -0.1739 -0.3457  0.2592
 1193SOL     OW 3959   5.471   3.054   1.430 -0.0074 -0.9951  0.0432
 1193SOL    HW1 3960   5.429   3.131   1.469 -0.2833 -0.9053 -0.4298
 1193SOL    HW2 3961   5.538   3.028   1.494  2.2537  1.5244 -1.2292
 1193SOL     MW 3962   5.474   3.060   1.443  0.2465 -0.6611 -0.1804
 1194SOL     OW 3963   3.761   0.681   1.186  0.0357  0.0995  0.4930
 1194SOL    HW1 3964   3.712   0.732   1.120 -1.7360  0.4646  2.0348
 1194SOL    HW2 3965   3.811   0.747   1.234 -1.5900  0.3328  1.9256
 1194SOL     MW 3966   3.761   0.696   1.184 -0.3991  0.1761  0.8738
 1195SOL     OW 3967   0.062   4.409   1.440  0.1341  0.0447 -0.1108
 1195SOL    HW1 3968   0.126   4.462   1.486 -0.4475  0.9546 -0.3219
 1195SOL    HW2 3969   0.079   4.319   1.468 -0.0111  0.5419  1.6184
 1195SOL     MW 3970   0.072   4.404   1.449  0.0411  0.2251  0.0834
 1196SOL     OW 3971   2.326   0.992   1.930 -0.1947  0.0758  0.7545
 1196SOL    HW1 3972   2.349   0.899   1.918  1.5190  0.2503  2.5256
 1196SOL    HW2 3973   2.277   0.994   2.011 -2.8942  0.3376 -0.8179
 1196SOL     MW 3974   2.323   0.980   1.939 -0.3209  0.1316  0.7799
 1197SOL     OW 3975   3.120   0.700   4.562  0.0323 -0.0495  0.4594
 1197SOL    HW1 3976   3.107   0.621   4.614 -0.5193  0.0862  0.5294
 1197SOL    HW2 3977   3.168   0.670   4.485 -2.1604 -0.8926 -0.6402
 1197SOL     MW 3978   3.124   0.686   4.559 -0.3190 -0.1401  0.3276
 1198SOL     OW 3979   0.171   3.558   4.147  0.2112 -0.0797 -0.0839
 1198SOL    HW1 3980   0.266   3.550   4.140  0.3766  1.2413  0.6233
 1198SOL    HW2 3981   0.137   3.483   4.097  1.5762  0.7413 -2.3055
 1198SOL     MW 3982   0.179   3.547   4.140  0.4071  0.1945 -0.2775
 1199SOL     OW 3983   0.008   0.284   3.592  0.2631  0.6949 -0.4935
 1199SOL    HW1 3984  -0.066   0.336   3.560 -1.3640 -0.7356  0.7923
 1199SOL    HW2 3985   0.001   0.289   3.688  0.3983 -1.3743 -0.3507
 1199SOL     MW 3986  -0.003   0.291   3.600  0.0725  0.2469 -0.3107
 1200SOL     OW 3987   4.681   4.055   1.220 -0.7106  0.5864 -0.2955
 1200SOL    HW1 3988   4.595   4.055   1.262 -0.9012  1.1425 -0.6785
 1200SOL    HW2 3989   4.712   4.145   1.229 -0.1547  0.3824 -0.1317
 1200SOL     MW 3990   4.674   4.067   1.227 -0.6642  0.6313 -0.3237
 1201SOL     OW 3991   0.753   4.862   0.285  0.4684 -0.3619  0.4013
 1201SOL    HW1 3992   0.838   4.825   0.260  0.2998 -0.4215 -0.0782
 1201SOL    HW2 3993   0.755   4.863   0.381  0.3684 -1.8986  0.4444
 1201SOL     MW 3994   0.764   4.857   0.294  0.4340 -0.5665  0.3455
 1202SOL     OW 3995   0.719   5.078   1.331 -0.0611  0.4137 -0.2209
 1202SOL    HW1 3996   0.754   5.118   1.251  0.5765 -0.3560 -0.3327
 1202SOL    HW2 3997   0.694   4.990   1.304  0.7042 -0.0473  0.5639
 1202SOL     MW 3998   0.721   5.072   1.317  0.1185  0.2565 -0.1348
 1203SOL     OW 3999   3.447   5.728   3.105 -0.6534  0.5200  0.3027
 1203SOL    HW1 4000   3.476   5.709   3.194 -1.4415  1.0459  0.6772
 1203SOL    HW2 4001   3.473   5.651   3.054  0.4737  0.5389  0.8247
 1203SOL     MW 4002   3.454   5.716   3.110 -0.6101  0.5898  0.4175
 1204SOL     OW 4003   5.854   3.571   0.479  0.1347 -0.5379 -0.3853
 1204SOL    HW1 4004   5.768   3.529   0.474  0.1416 -0.5552 -0.3635
 1204SOL    HW2 4005   5.912   3.502   0.513 -0.1075 -0.1352  0.8750
 1204SOL     MW 4006   5.850   3.557   0.483  0.1044 -0.4885 -0.2212
 1205SOL     OW 4007   1.157   1.740   5.257 -0.1080  0.5927  0.4540
 1205SOL    HW1 4008   1.123   1.696   5.179 -0.8885 -0.2875  1.2707
 1205SOL    HW2 4009   1.085   1.797   5.285 -0.1892  0.1954  1.0636
 1205SOL     MW 4010   1.143   1.742   5.251 -0.2183  0.4292  0.6366
 1206SOL     OW 4011   0.069   4.567   4.364  0.6144 -0.2354  0.0666
 1206SOL    HW1 4012  -0.012   4.610   4.391  1.9289  1.1179  1.9467
 1206SOL    HW2 4013   0.063   4.479   4.400 -0.4417 -0.4593 -0.6306
 1206SOL     MW 4014   0.058   4.561   4.372  0.6475 -0.0911  0.2184
 1207SOL     OW 4015   4.904   3.077   1.163 -0.2999 -0.5549  0.2058
 1207SOL    HW1 4016   4.875   3.155   1.117 -1.1711 -0.4134  0.9985
 1207SOL    HW2 4017   4.967   3.037   1.103 -0.6053  0.2070 -0.6399
 1207SOL     MW 4018   4.908   3.082   1.149 -0.4506 -0.4394  0.1991
 1208SOL     OW 4019   5.546   4.788   5.059 -0.1962  0.0983  0.0557
 1208SOL    HW1 4020   5.538   4.776   4.965 -0.1823  0.4423  0.0085
 1208SOL    HW2 4021   5.535   4.882   5.072 -4.0774 -0.3802  0.7928
 1208SOL     MW 4022   5.544   4.798   5.049 -0.6914  0.0811  0.1440
 1209SOL     OW 4023   1.258   1.064   1.161  0.5924  0.4176  0.3918
 1209SOL    HW1 4024   1.200   1.006   1.210 -0.3355  0.4333 -0.6765
 1209SOL    HW2 4025   1.345   1.027   1.173 -0.1898 -2.1468 -1.6135
 1209SOL     MW 4026   1.262   1.052   1.169  0.3735  0.0913 -0.0019
 1210SOL     OW 4027   3.410   1.848   0.746 -0.2809  0.1944  0.1325
 1210SOL    HW1 4028   3.353   1.779   0.712  0.6782  1.0586 -3.4399
 1210SOL    HW2 4029   3.355   1.926   0.744 -0.6650 -0.0086  2.0332
 1210SOL     MW 4030   3.395   1.849   0.741 -0.2072  0.2791 -0.0815
 1211SOL     OW 4031   0.612   5.270   5.304 -0.4365  0.0403  0.3452
 1211SOL    HW1 4032   0.699   5.232   5.292 -1.5167 -3.0609  1.7518
 1211SOL    HW2 4033   0.556   5.221   5.244 -1.2991  1.8015 -0.3274
 1211SOL     MW 4034   0.616   5.259   5.294 -0.6852 -0.1316  0.4396
 1212SOL     OW 4035   5.989   5.369   4.113  0.6099  0.5247  0.1774
 1212SOL    HW1 4036   6.076   5.330   4.117  0.6278  0.5633  0.1563
 1212SOL    HW2 4037   5.933   5.298   4.082  0.1512 -0.3421  2.8451
 1212SOL     MW 4038   5.993   5.355   4.110  0.5531  0.4187  0.5159
 1213SOL     OW 4039   4.204   4.517   4.440 -0.7404 -0.2063  0.1922
 1213SOL    HW1 4040   4.195   4.519   4.536 -0.7745 -0.6176  0.1949
 1213SOL    HW2 4041   4.268   4.448   4.423 -0.7706 -0.1648 -0.0864
 1213SOL     MW 4042   4.211   4.509   4.450 -0.7491 -0.2537  0.1569
 1214SOL     OW 4043   2.319   4.332   4.203  0.8379 -0.2234  0.0020
 1214SOL    HW1 4044   2.359   4.343   4.289  2.5719  1.0804 -0.9409
 1214SOL    HW2 4045   2.269   4.251   4.210  1.3713 -0.3904  2.0783
 1214SOL     MW 4046   2.318   4.323   4.215  1.1284 -0.0782  0.1469
 1215SOL     OW 4047   5.808   2.539   2.988  0.1014 -0.1583 -0.1586
 1215SOL    HW1 4048   5.779   2.453   3.017 -0.0363 -0.4921 -1.2924
 1215SOL    HW2 4049   5.771   2.599   3.054  1.4030 -1.0742  1.4445
 1215SOL     MW 4050   5.799   2.536   3.000  0.2508 -0.3183 -0.0982
 1216SOL     OW 4051   1.750   3.365   4.480 -0.0630  0.7618 -0.1592
 1216SOL    HW1 4052   1.667   3.321   4.464  0.6076 -1.2530  1.5464
 1216SOL    HW2 4053   1.808   3.334   4.411 -0.1016  0.3806 -0.0208
 1216SOL     MW 4054   1.747   3.355   4.469  0.0180  0.4551  0.0772
 1217SOL     OW 4055   2.315   4.081   1.098 -0.0299  0.5899  0.1895
 1217SOL    HW1 4056   2.296   4.088   1.191 -3.7755 -0.5970 -0.3898
 1217SOL    HW2 4057   2.303   4.169   1.064  1.7270  1.1064  0.8527
 1217SOL     MW 4058   2.311   4.093   1.105 -0.2844  0.5050  0.2004
 1218SOL     OW 4059   1.530   3.712   3.248  0.4898  0.0984 -0.5695
 1218SOL    HW1 4060   1.497   3.640   3.301 -0.0303  0.6942 -0.0663
 1218SOL    HW2 4061   1.549   3.673   3.163  1.8944 -0.9916  0.2260
 1218SOL     MW 4062   1.528   3.698   3.244  0.6030  0.0350 -0.4032
 1219SOL     OW 4063   1.090   4.826   3.170 -0.1883  0.5985 -0.0672
 1219SOL    HW1 4064   1.148   4.842   3.095  0.0488  1.0889  0.2133
 1219SOL    HW2 4065   1.012   4.878   3.151 -0.2345  0.5151 -0.1024
 1219SOL     MW 4066   1.088   4.835   3.158 -0.1638  0.6509 -0.0358
 1220SOL     OW 4067   0.401   1.708   2.211 -0.3139  0.7184  0.2846
 1220SOL    HW1 4068   0.484   1.666   2.187 -0.7807 -1.4456  2.2790
 1220SOL    HW2 4069   0.336   1.666   2.155 -0.2569  1.4758 -0.3538
 1220SOL     MW 4070   0.403   1.697   2.201 -0.3663  0.5383  0.4582
 1221SOL     OW 4071   0.375   0.078   3.604 -0.1621  0.2654 -0.2304
 1221SOL    HW1 4072   0.317   0.145   3.568 -0.5139 -1.0045 -2.1065
 1221SOL    HW2 4073   0.369   0.005   3.542  1.5512 -0.8342  0.8509
 1221SOL     MW 4074   0.367   0.077   3.591  0.0122 -0.0379 -0.3321
 1222SOL     OW 4075   1.135   2.248   0.605  0.4671  0.5635  0.0034
 1222SOL    HW1 4076   1.063   2.307   0.626 -2.0887 -2.5506  0.3551
 1222SOL    HW2 4077   1.138   2.246   0.509  0.4849  1.1758 -0.0067
 1222SOL     MW 4078   1.126   2.255   0.595  0.1421  0.2432  0.0471
 1223SOL     OW 4079   1.761   1.008   3.648  0.0505  0.0252  0.2983
 1223SOL    HW1 4080   1.767   1.068   3.574 -1.1130 -1.6329 -1.2037
 1223SOL    HW2 4081   1.824   0.939   3.629 -1.6289 -1.4302 -0.1698
 1223SOL     MW 4082   1.770   1.007   3.636 -0.3136 -0.3735  0.0460
 1224SOL     OW 4083   0.756   1.600   1.167  0.3642 -0.3245  0.2314
 1224SOL    HW1 4084   0.788   1.674   1.116 -1.5203  1.0802  0.9880
 1224SOL    HW2 4085   0.732   1.534   1.102  1.7147 -0.1190 -0.4776
 1224SOL     MW 4086   0.757   1.601   1.152  0.2958 -0.1183  0.2375
 1225SOL     OW 4087   0.497   0.537   5.273  0.0455  0.0507  0.1555
 1225SOL    HW1 4088   0.464   0.594   5.204 -0.3005  0.0750  0.3366
 1225SOL    HW2 4089   0.539   0.596   5.335  3.2069 -0.2679 -1.5996
 1225SOL     MW 4090   0.498   0.552   5.272  0.4060  0.0129 -0.0458
 1226SOL     OW 4091   5.500   2.180   3.518  0.0449 -0.4845  0.7802
 1226SOL    HW1 4092   5.467   2.236   3.447  2.6897  0.0012 -0.1165
 1226SOL    HW2 4093   5.421   2.150   3.563 -1.6583  0.0398 -1.7207
 1226SOL     MW 4094   5.486   2.183   3.515  0.1655 -0.3550  0.3455
 1227SOL     OW 4095   2.378   2.177   0.469  0.2730  0.2781 -0.3639
 1227SOL    HW1 4096   2.302   2.227   0.438  1.4907  1.5282 -1.4157
 1227SOL    HW2 4097   2.429   2.241   0.520  1.6993  0.0641 -1.4767
 1227SOL     MW 4098   2.375   2.192   0.472  0.6115  0.4108 -0.6410
 1228SOL     OW 4099   3.198   0.438   3.030 -0.1414 -0.0867 -0.5135
 1228SOL    HW1 4100   3.119   0.450   2.977 -1.0985 -0.7160  0.7328
 1228SOL    HW2 4101   3.196   0.345   3.054  1.0424 -0.1318 -0.5557
 1228SOL     MW 4102   3.188   0.427   3.026 -0.1125 -0.1730 -0.3595
 1229SOL     OW 4103   3.977   1.174   5.685 -0.4737 -0.2487 -0.0536
 1229SOL    HW1 4104   3.932   1.162   5.769 -1.2007  0.0656 -0.3923
 1229SOL    HW2 4105   3.975   1.088   5.644 -0.3405 -0.3437  0.1340
 1229SOL     MW 4106   3.971   1.162   5.691 -0.5498 -0.2207 -0.0725
 1230SOL     OW 4107   0.052   5.196   1.625  0.1630 -0.1419 -0.2279
 1230SOL    HW1 4108   0.147   5.194   1.636  0.1537 -0.1188 -0.1469
 1230SOL    HW2 4109   0.017   5.150   1.701  0.1769 -1.6048 -1.0908
 1230SOL     MW 4110   0.059   5.190   1.636  0.1636 -0.3262 -0.3281
 1231SOL     OW 4111   5.983   5.824   2.403  0.0300  0.8662 -0.2106
 1231SOL    HW1 4112   5.933   5.785   2.330 -0.4308 -0.3248  0.7324
 1231SOL    HW2 4113   5.987   5.917   2.381 -2.3093  0.9302 -0.4950
 1231SOL     MW 4114   5.977   5.830   2.391 -0.3281  0.7219 -0.1261
 1232SOL     OW 4115   4.572   1.259   5.530 -0.5624  0.6481 -0.4524
 1232SOL    HW1 4116   4.660   1.293   5.513  1.9469 -3.2378  3.6309
 1232SOL    HW2 4117   4.550   1.208   5.453  1.9051 -0.4204 -0.4656
 1232SOL     MW 4118   4.580   1.257   5.518  0.0749  0.0138  0.0687
 1233SOL     OW 4119   1.227   1.255   5.648  0.3551 -0.2044 -0.8604
 1233SOL    HW1 4120   1.232   1.269   5.742  0.2443 -0.5989 -0.7944
 1233SOL    HW2 4121   1.241   1.161   5.637  0.2992 -0.1708 -1.2319
 1233SOL     MW 4122   1.230   1.244   5.659  0.3338 -0.2507 -0.8993
 1234SOL     OW 4123   5.280   0.536   5.728 -0.0820 -0.2666 -0.2043
 1234SOL    HW1 4124   5.246   0.471   5.789 -0.5541 -0.6270 -0.8401
 1234SOL    HW2 4125   5.201   0.572   5.687  0.2265  0.0843 -0.4857
 1234SOL     MW 4126   5.265   0.532   5.731 -0.1030 -0.2678 -0.3214
 1235SOL     OW 4127   2.028   3.088   5.810 -0.1061 -0.2221  0.4244
 1235SOL    HW1 4128   1.961   3.060   5.749 -0.9255 -1.0629  1.6923
 1235SOL    HW2 4129   1.981   3.103   5.892  0.9688  0.9246  0.8466
 1235SOL     MW 4130   2.014   3.087   5.813 -0.0734 -0.1829  0.6404
 1236SOL     OW 4131   5.591   1.488   2.677  0.1351 -0.2739 -0.0140
 1236SOL    HW1 4132   5.555   1.563   2.628  1.9951  0.1825 -0.7153
 1236SOL    HW2 4133   5.517   1.456   2.728 -1.2283  0.7667 -1.2705
 1236SOL     MW 4134   5.577   1.494   2.677  0.1979 -0.0824 -0.2646
 1237SOL     OW 4135   5.599   5.355   4.627 -0.1538  0.1330 -0.2700
 1237SOL    HW1 4136   5.532   5.366   4.560 -0.8278  1.5815  0.6144
 1237SOL    HW2 4137   5.582   5.270   4.666 -0.9401  0.1170 -0.6571
 1237SOL     MW 4138   5.588   5.346   4.624 -0.3409  0.3166 -0.2060
 1238SOL     OW 4139   3.887   4.794   3.655  0.1224  0.2162 -0.0311
 1238SOL    HW1 4140   3.929   4.785   3.741 -0.0765 -1.7383 -0.1131
 1238SOL    HW2 4141   3.957   4.783   3.592 -0.3033 -1.9370 -0.1536
 1238SOL     MW 4142   3.901   4.792   3.658  0.0424 -0.3090 -0.0575
 1239SOL     OW 4143   2.173   1.688   1.002  0.1019 -0.0634 -0.2804
 1239SOL    HW1 4144   2.223   1.770   1.008  2.1063 -1.1831 -1.0851
 1239SOL    HW2 4145   2.208   1.645   0.924  0.0287 -2.3306  0.9035
 1239SOL     MW 4146   2.184   1.693   0.992  0.3493 -0.4969 -0.2319
 1240SOL     OW 4147   2.603   0.039   2.116  0.0219 -0.1747  0.0602
 1240SOL    HW1 4148   2.535   0.010   2.176 -1.9614  1.3263 -1.4136
 1240SOL    HW2 4149   2.556   0.081   2.044  2.5170  1.4928 -0.6757
 1240SOL     MW 4150   2.589   0.040   2.115  0.0873  0.2309 -0.2229
 1241SOL     OW 4151   5.999   1.762   3.775 -1.0087 -0.5702  0.1051
 1241SOL    HW1 4152   5.968   1.694   3.714 -0.2615 -0.2364 -0.6631
 1241SOL    HW2 4153   6.035   1.830   3.718 -1.3821  0.2895  0.8884
 1241SOL     MW 4154   5.999   1.762   3.760 -0.9608 -0.4174  0.1073
 1242SOL     OW 4155   2.399   1.849   0.021  0.1310 -0.5953 -0.7517
 1242SOL    HW1 4156   2.385   1.941  -0.001 -0.5761 -0.6037 -0.3387
 1242SOL    HW2 4157   2.337   1.802  -0.033  0.9653 -0.8805 -1.4634
 1242SOL     MW 4158   2.389   1.855   0.012  0.1473 -0.6328 -0.7899
 1243SOL     OW 4159   1.496   0.438   0.332  0.1505  0.2013 -0.1976
 1243SOL    HW1 4160   1.571   0.498   0.342  0.5620 -0.6204  1.9339
 1243SOL    HW2 4161   1.494   0.389   0.415 -2.0381 -0.6055 -0.7160
 1243SOL     MW 4162   1.506   0.439   0.344 -0.0770 -0.0071  0.0089
 1244SOL     OW 4163   5.197   1.273   2.951 -0.3008  0.5039 -0.5946
 1244SOL    HW1 4164   5.143   1.274   2.872  0.9369 -0.0265 -1.4616
 1244SOL    HW2 4165   5.235   1.186   2.953 -0.6266  0.3847  0.8152
 1244SOL     MW 4166   5.195   1.262   2.941 -0.1841  0.4208 -0.5248
 1245SOL     OW 4167   2.454   0.004   3.469  0.4221  0.8906 -0.6272
 1245SOL    HW1 4168   2.467  -0.052   3.545 -1.4467  2.5049  0.9298
 1245SOL    HW2 4169   2.477  -0.051   3.394 -0.2506 -1.5835  0.9385
 1245SOL     MW 4170   2.458  -0.010   3.469  0.0968  0.7806 -0.2272
 1246SOL     OW 4171   2.804   0.680   4.230 -0.5498  0.2211  0.1609
 1246SOL    HW1 4172   2.746   0.708   4.301 -0.1209  2.3311 -0.2627
 1246SOL    HW2 4173   2.869   0.624   4.272 -1.2219  0.1770  1.1552
 1246SOL     MW 4174   2.805   0.677   4.244 -0.5808  0.4856  0.2337
 1247SOL     OW 4175   3.924   2.981   5.607  0.2083  0.6477 -0.1790
 1247SOL    HW1 4176   3.866   2.973   5.683  1.8821 -0.3344  1.0267
 1247SOL    HW2 4177   3.866   3.009   5.536 -2.2414 -2.8050  0.3303
 1247SOL     MW 4178   3.909   2.984   5.608  0.1092  0.0796  0.0405
 1248SOL     OW 4179   0.414   3.418   0.849  0.3890  0.2536  0.0170
 1248SOL    HW1 4180   0.464   3.445   0.927  2.2033 -0.0453 -1.0262
 1248SOL    HW2 4181   0.480   3.389   0.787 -1.0487  0.5495 -1.6820
 1248SOL     MW 4182   0.429   3.418   0.851  0.4372  0.2532 -0.3341
 1249SOL     OW 4183   4.947   4.150   5.760  0.0798  0.1765  0.1300
 1249SOL    HW1 4184   4.866   4.179   5.718  1.7381  2.1862 -1.7445
 1249SOL    HW2 4185   4.949   4.055   5.745 -0.5293  0.5162 -2.3136
 1249SOL     MW 4186   4.937   4.142   5.753  0.2141  0.4773 -0.4225
 1250SOL     OW 4187   1.222   1.691   5.517  0.9466 -0.2279  0.2707
 1250SOL    HW1 4188   1.216   1.710   5.423  0.0835  1.5736  0.6652
 1250SOL    HW2 4189   1.180   1.606   5.527  1.4737 -0.6538 -1.0497
 1250SOL     MW 4190   1.216   1.683   5.506  0.9036 -0.0517  0.1521
 1251SOL     OW 4191   1.663   1.885   2.039  0.3180  0.1069  0.1054
 1251SOL    HW1 4192   1.651   1.974   2.008  0.1804 -0.1597 -0.6183
 1251SOL    HW2 4193   1.742   1.854   1.995 -0.3534 -0.5629 -0.6424
 1251SOL     MW 4194   1.671   1.892   2.029  0.2145 -0.0130 -0.0827
 1252SOL     OW 4195   4.504   4.329   1.377  0.8011 -0.1812  1.3002
 1252SOL    HW1 4196   4.487   4.235   1.384  0.9021 -0.4994 -2.1942
 1252SOL    HW2 4197   4.418   4.369   1.385  0.5233 -0.6855  0.8613
 1252SOL     MW 4198   4.491   4.322   1.379  0.7787 -0.2866  0.7968
 1253SOL     OW 4199   5.398   4.538   5.697 -0.5053 -0.1146  0.8531
 1253SOL    HW1 4200   5.426   4.599   5.766 -0.1121  0.2445  0.3828
 1253SOL    HW2 4201   5.479   4.493   5.671  0.3410  3.0959 -2.6609
 1253SOL     MW 4202   5.412   4.540   5.703 -0.3471  0.3424  0.3433
 1254SOL     OW 4203   2.824   4.474   0.439  0.5884  0.3762  0.1238
 1254SOL    HW1 4204   2.743   4.424   0.448  0.2270  0.5519 -1.9306
 1254SOL    HW2 4205   2.891   4.408   0.423  0.3914  0.4186 -0.8978
 1254SOL     MW 4206   2.822   4.459   0.438  0.5169  0.4044 -0.2699
 1255SOL     OW 4207   4.098   3.834   3.247  0.5211 -0.6930 -0.1968
 1255SOL    HW1 4208   4.003   3.842   3.258  0.6536 -0.2489  0.6208
 1255SOL    HW2 4209   4.114   3.867   3.158  0.0319  0.2244  0.0439
 1255SOL     MW 4210   4.088   3.839   3.237  0.4759 -0.5186 -0.0613
 1256SOL     OW 4211   2.372   3.206   2.402  0.1012  0.1466 -0.2416
 1256SOL    HW1 4212   2.323   3.284   2.377 -1.1313 -0.5817 -0.1528
 1256SOL    HW2 4213   2.411   3.228   2.486  0.4102  0.9437 -0.5891
 1256SOL     MW 4214   2.371   3.219   2.409 -0.0169  0.1554 -0.2749
 1257SOL     OW 4215   0.955   0.410   0.534 -0.0240 -0.1918 -0.1834
 1257SOL    HW1 4216   0.975   0.504   0.529 -0.2646 -0.1586 -0.5950
 1257SOL    HW2 4217   1.029   0.368   0.490 -0.7438 -0.0814 -1.5270
 1257SOL     MW 4218   0.967   0.417   0.527 -0.1469 -0.1734 -0.4081
 1258SOL     OW 4219   3.567   3.908   0.455  0.0069 -0.2059 -0.5293
 1258SOL    HW1 4220   3.517   3.829   0.432  1.4012 -1.1192 -0.5191
 1258SOL    HW2 4221   3.604   3.888   0.541  2.6531 -0.6900 -1.7290
 1258SOL     MW 4222   3.565   3.895   0.463  0.5240 -0.3846 -0.6815
 1259SOL     OW 4223   3.278   0.640   3.905  0.0047  0.5203  0.1974
 1259SOL    HW1 4224   3.335   0.566   3.925  0.7997  1.4812  1.6614
 1259SOL    HW2 4225   3.193   0.617   3.942  0.4898  0.6987  1.4549
 1259SOL     MW 4226   3.275   0.628   3.913  0.1688  0.6661  0.5457
 1260SOL     OW 4227   4.376   5.105   0.347  0.1414  0.3283 -0.8470
 1260SOL    HW1 4228   4.420   5.068   0.423  1.6301 -0.8898 -2.2656
 1260SOL    HW2 4229   4.446   5.146   0.296 -0.8184  1.0452 -1.6165
 1260SOL     MW 4230   4.390   5.106   0.350  0.2089  0.2642 -1.1271
 1261SOL     OW 4231   4.821   4.373   4.433  0.1296  0.0213 -0.2292
 1261SOL    HW1 4232   4.887   4.344   4.496  0.5491 -0.2057 -0.7710
 1261SOL    HW2 4233   4.791   4.293   4.391  0.1262  0.2121 -0.5919
 1261SOL     MW 4234   4.826   4.359   4.436  0.1831  0.0167 -0.3448
 1262SOL     OW 4235   5.559   2.167   2.836 -0.2215  0.0205 -0.6933
 1262SOL    HW1 4236   5.626   2.099   2.825  0.3212  0.4070  0.0932
 1262SOL    HW2 4237   5.503   2.134   2.906 -0.1278  0.2447 -0.5109
 1262SOL     MW 4238   5.561   2.154   2.844 -0.1392  0.0985 -0.5693
 1263SOL     OW 4239   5.923   0.437   4.516 -0.3170  0.0301  0.1381
 1263SOL    HW1 4240   5.953   0.512   4.567 -1.7513  1.1283 -0.6092
 1263SOL    HW2 4241   5.894   0.474   4.433  1.2630 -1.6453 -1.2070
 1263SOL     MW 4242   5.923   0.451   4.512 -0.2980 -0.0438 -0.1292
 1264SOL     OW 4243   2.575   0.954   5.521 -0.0225  0.2529 -0.7662
 1264SOL    HW1 4244   2.595   0.879   5.576 -1.1789  1.7459  1.7831
 1264SOL    HW2 4245   2.512   0.922   5.456  0.1111 -1.1330 -0.2136
 1264SOL     MW 4246   2.570   0.941   5.519 -0.1535  0.2667 -0.3691
 1265SOL     OW 4247   5.166   5.864   0.330  0.4468  0.1589 -0.0105
 1265SOL    HW1 4248   5.212   5.829   0.254 -0.6258  1.6684 -1.4051
 1265SOL    HW2 4249   5.151   5.956   0.308  0.0302  0.5910  1.9973
 1265SOL     MW 4250   5.170   5.871   0.317  0.2561  0.4077  0.0680
 1266SOL     OW 4251   1.231   2.897   2.705 -0.4482 -0.4298  0.1035
 1266SOL    HW1 4252   1.293   2.969   2.702  0.2237 -1.0455 -1.0325
 1266SOL    HW2 4253   1.280   2.822   2.671 -0.7271 -1.7222  2.4749
 1266SOL     MW 4254   1.245   2.896   2.700 -0.3978 -0.6740  0.2615
 1267SOL     OW 4255   1.533   2.616   2.011 -0.2847 -0.3809 -0.0672
 1267SOL    HW1 4256   1.614   2.587   2.053 -1.0557  1.0432  2.5178
 1267SOL    HW2 4257   1.542   2.711   2.004 -2.6990  0.1371  2.5953
 1267SOL     MW 4258   1.544   2.624   2.016 -0.6925 -0.1323  0.6046
 1268SOL     OW 4259   3.280   0.165   0.917 -0.0793 -0.4826  0.3155
 1268SOL    HW1 4260   3.207   0.144   0.976 -1.0343  1.5363 -0.0849
 1268SOL    HW2 4261   3.339   0.218   0.970 -0.6426  0.8256 -0.3352
 1268SOL     MW 4262   3.278   0.170   0.931 -0.2735 -0.0567  0.1810
 1269SOL     OW 4263   3.282   4.168   5.704  0.5261 -0.2376  0.1974
 1269SOL    HW1 4264   3.198   4.121   5.706  1.4375 -1.8709  0.3952
 1269SOL    HW2 4265   3.267   4.245   5.759 -0.9691 -0.2794 -0.1076
 1269SOL     MW 4266   3.269   4.172   5.711  0.4516 -0.4516  0.1836
 1270SOL     OW 4267   2.021   1.827   4.614 -0.4296 -0.5909  0.0229
 1270SOL    HW1 4268   1.959   1.900   4.613 -2.1381 -2.0230 -0.9558
 1270SOL    HW2 4269   2.050   1.818   4.523  2.1605  0.7966  0.6464
 1270SOL     MW 4270   2.017   1.836   4.602 -0.3171 -0.5966 -0.0229
 1271SOL     OW 4271   5.750   1.635   2.460 -0.1466  0.5610 -0.3662
 1271SOL    HW1 4272   5.842   1.661   2.464 -0.0921  0.3593 -0.3034
 1271SOL    HW2 4273   5.701   1.718   2.458  0.0675  0.6714 -1.1209
 1271SOL     MW 4274   5.755   1.649   2.460 -0.1130  0.5493 -0.4547
 1272SOL     OW 4275   1.578   3.498   3.916  0.8365 -0.1255  0.3013
 1272SOL    HW1 4276   1.590   3.569   3.853 -1.0806  0.6108  0.7241
 1272SOL    HW2 4277   1.501   3.451   3.884  0.0946  0.0008  1.8419
 1272SOL     MW 4278   1.569   3.501   3.904  0.4960 -0.0150  0.5527
 1273SOL     OW 4279   1.043   1.569   2.791 -0.2542 -0.2557 -0.0581
 1273SOL    HW1 4280   1.044   1.533   2.880  1.0947 -1.6309 -0.6278
 1273SOL    HW2 4281   1.032   1.663   2.805  0.2886 -0.4069  1.5845
 1273SOL     MW 4282   1.041   1.576   2.804 -0.0120 -0.4513  0.0792
 1274SOL     OW 4283   4.480   1.891   4.380  0.0480  0.1583  0.2161
 1274SOL    HW1 4284   4.411   1.845   4.428 -0.1558  1.0897  0.8375
 1274SOL    HW2 4285   4.472   1.859   4.290 -0.0261 -1.0708  0.6588
 1274SOL     MW 4286   4.470   1.881   4.375  0.0124  0.1202  0.3524
 1275SOL     OW 4287   3.703   4.335   4.242  0.2355  0.8421  0.5052
 1275SOL    HW1 4288   3.781   4.318   4.189 -0.5086 -0.1705 -0.2939
 1275SOL    HW2 4289   3.652   4.399   4.192  0.3896  1.2404  0.8582
 1275SOL     MW 4290   3.706   4.341   4.229  0.1600  0.7634  0.4478
 1276SOL     OW 4291   4.427   1.069   5.329  0.3590  0.4221 -0.0139
 1276SOL    HW1 4292   4.359   1.003   5.319  0.4688  0.3167 -0.0639
 1276SOL    HW2 4293   4.458   1.086   5.239  0.2359  0.6390 -0.0161
 1276SOL     MW 4294   4.423   1.063   5.316  0.3572  0.4364 -0.0215
 1277SOL     OW 4295   1.747   3.290   3.900  0.0303  0.1015  0.3342
 1277SOL    HW1 4296   1.691   3.366   3.909 -0.4118 -0.3529  1.5248
 1277SOL    HW2 4297   1.720   3.231   3.970  0.4296 -1.1129 -0.5066
 1277SOL     MW 4298   1.737   3.292   3.910  0.0248 -0.1121  0.3791
 1278SOL     OW 4299   5.275   3.400   2.468 -0.2432  0.1928  0.3313
 1278SOL    HW1 4300   5.223   3.349   2.406 -0.9913  0.3913  0.7880
 1278SOL    HW2 4301   5.358   3.352   2.476  0.0397  0.4052 -1.1538
 1278SOL     MW 4302   5.279   3.388   2.461 -0.3028  0.2451  0.1996
 1279SOL     OW 4303   0.020   0.629   4.681 -0.2400  0.6828 -0.6291
 1279SOL    HW1 4304  -0.004   0.561   4.743 -0.2325  1.1971 -0.0521
 1279SOL    HW2 4305  -0.050   0.694   4.688  1.5504  2.5017  1.5391
 1279SOL     MW 4306   0.008   0.629   4.690 -0.0100  0.9814 -0.2775
 1280SOL     OW 4307   0.884   3.224   0.281  0.3442  0.6706  0.1618
 1280SOL    HW1 4308   0.947   3.293   0.299  0.3054  0.8548 -0.4102
 1280SOL    HW2 4309   0.893   3.206   0.188  2.3829 -2.0683  0.8045
 1280SOL     MW 4310   0.893   3.230   0.272  0.6002  0.3436  0.1709
 1281SOL     OW 4311   3.139   0.916   4.296  0.6581  0.0032  0.3117
 1281SOL    HW1 4312   3.146   1.012   4.295  0.5427  0.0063 -0.4173
 1281SOL    HW2 4313   3.229   0.886   4.282  0.6828  0.0034  0.4691
 1281SOL     MW 4314   3.152   0.925   4.294  0.6466  0.0037  0.2379
 1282SOL     OW 4315   0.223   2.263   2.984 -0.3668 -0.1288  0.4387
 1282SOL    HW1 4316   0.272   2.185   3.008  0.3638  0.9876  2.8123
 1282SOL    HW2 4317   0.193   2.248   2.895 -0.2573 -3.1093  0.8756
 1282SOL     MW 4318   0.225   2.251   2.976 -0.2593 -0.3674  0.7985
 1283SOL     OW 4319   5.919   2.855   1.450  0.1808  0.0682  0.0105
 1283SOL    HW1 4320   5.901   2.894   1.364 -1.7133  0.8655  0.7535
 1283SOL    HW2 4321   5.870   2.772   1.449  3.7810 -2.1667 -1.3693
 1283SOL     MW 4322   5.911   2.849   1.439  0.3996 -0.1161 -0.0710
 1284SOL     OW 4323   4.805   1.559   5.722  0.2421 -0.6539  0.0401
 1284SOL    HW1 4324   4.875   1.515   5.673 -1.0533 -0.6123 -1.9252
 1284SOL    HW2 4325   4.848   1.633   5.765  1.0956  0.5577 -2.7796
 1284SOL     MW 4326   4.819   1.563   5.721  0.1855 -0.4934 -0.5727
 1285SOL     OW 4327   2.819   0.100   3.449  0.2165 -0.0440  0.3500
 1285SOL    HW1 4328   2.899   0.062   3.411  0.2498 -1.2853  1.6474
 1285SOL    HW2 4329   2.769   0.129   3.373  2.7074  2.4539 -0.4335
 1285SOL     MW 4330   2.823   0.099   3.434  0.5395  0.1168  0.4160
 1286SOL     OW 4331   1.579   0.609   2.124  0.4186  0.0344 -0.2996
 1286SOL    HW1 4332   1.546   0.610   2.035 -0.7422 -0.8014  0.0951
 1286SOL    HW2 4333   1.525   0.673   2.171 -1.0844 -1.7207  0.4688
 1286SOL     MW 4334   1.568   0.617   2.119  0.0776 -0.2972 -0.1507
 1287SOL     OW 4335   1.496   1.480   4.864  0.2758 -0.4305  0.3396
 1287SOL    HW1 4336   1.537   1.542   4.925 -0.8787  2.5573 -1.8121
 1287SOL    HW2 4337   1.407   1.470   4.897 -0.2988  1.0595 -0.6834
 1287SOL     MW 4338   1.490   1.487   4.876  0.0545  0.1428 -0.0668
 1288SOL     OW 4339   2.758   3.032   0.575  0.2952 -0.2032 -0.1088
 1288SOL    HW1 4340   2.799   3.054   0.659 -1.2932  0.0877  0.6075
 1288SOL    HW2 4341   2.818   2.969   0.534  2.3222  1.5455  0.1208
 1288SOL     MW 4342   2.771   3.027   0.580  0.3514  0.0579  0.0123
 1289SOL     OW 4343   3.109   3.906   5.248 -0.0301  0.1800  0.1724
 1289SOL    HW1 4344   3.073   3.824   5.282  1.0341 -1.9220 -3.5421
 1289SOL    HW2 4345   3.203   3.891   5.243  0.2882  1.9793  0.3012
 1289SOL     MW 4346   3.116   3.894   5.252  0.1471  0.1411 -0.2866
 1290SOL     OW 4347   1.223   0.877   1.917  0.2073  0.0030 -0.1597
 1290SOL    HW1 4348   1.221   0.905   1.825  1.4347 -0.5858 -0.3808
 1290SOL    HW2 4349   1.264   0.950   1.963  0.6357 -0.1695 -0.2635
 1290SOL     MW 4350   1.228   0.890   1.911  0.4193 -0.0944 -0.2015
 1291SOL     OW 4351   1.851   2.310   0.418  0.0987 -0.1681 -0.3081
 1291SOL    HW1 4352   1.895   2.226   0.423  0.2366 -0.0795 -0.0095
 1291SOL    HW2 4353   1.789   2.301   0.345 -0.3542 -0.7453  0.1496
 1291SOL     MW 4354   1.848   2.298   0.409  0.0583 -0.2308 -0.2113
 1292SOL     OW 4355   3.979   0.261   4.807 -0.2434  0.0587 -0.7373
 1292SOL    HW1 4356   4.064   0.305   4.805  0.5403 -1.4128 -0.2835
 1292SOL    HW2 4357   3.954   0.260   4.899  0.5904 -2.0193 -0.5123
 1292SOL     MW 4358   3.987   0.267   4.818 -0.0362 -0.3957 -0.6504
 1293SOL     OW 4359   2.368   3.498   4.961 -0.9301 -0.1532  0.0997
 1293SOL    HW1 4360   2.368   3.535   4.873 -1.8206  1.0423  0.5994
 1293SOL    HW2 4361   2.441   3.542   5.005 -1.7824  0.7742  0.5923
 1293SOL     MW 4362   2.377   3.508   4.955 -1.1532  0.1187  0.2270
 1294SOL     OW 4363   5.242   2.795   1.468 -0.4388  0.2640 -0.0133
 1294SOL    HW1 4364   5.260   2.793   1.374  0.2008 -0.6836  0.1210
 1294SOL    HW2 4365   5.150   2.820   1.474  0.0554  2.3856 -0.8098
 1294SOL     MW 4366   5.233   2.798   1.457 -0.2937  0.4144 -0.0981
 1295SOL     OW 4367   0.786   2.336   0.881 -0.9754  0.6309  0.0633
 1295SOL    HW1 4368   0.856   2.401   0.869 -1.4876  0.9691 -1.1170
 1295SOL    HW2 4369   0.788   2.284   0.801  0.1814 -1.5617  1.4613
 1295SOL     MW 4370   0.796   2.337   0.869 -0.8929  0.3939  0.0912
 1296SOL     OW 4371   1.320   4.176   0.468 -0.1944  0.5840 -0.1828
 1296SOL    HW1 4372   1.307   4.165   0.374 -1.3379 -2.9306  0.2902
 1296SOL    HW2 4373   1.415   4.172   0.480 -0.0739  0.4133 -1.1400
 1296SOL     MW 4374   1.330   4.174   0.458 -0.3253  0.1121 -0.2448
 1297SOL     OW 4375   3.947   1.151   5.353  0.3511 -0.0869  0.1964
 1297SOL    HW1 4376   3.949   1.082   5.287  0.6214 -1.4151  1.5640
 1297SOL    HW2 4377   3.928   1.231   5.304 -0.2408 -1.1716 -1.3725
 1297SOL     MW 4378   3.945   1.153   5.339  0.3099 -0.3957  0.1707
 1298SOL     OW 4379   0.451   5.266   1.809  0.3399  0.3106  0.2903
 1298SOL    HW1 4380   0.394   5.335   1.844 -0.5654 -0.0529 -0.4644
 1298SOL    HW2 4381   0.508   5.311   1.746 -0.1646  0.3912 -0.1076
 1298SOL     MW 4382   0.451   5.281   1.805  0.1594  0.2742  0.1428
 1299SOL     OW 4383   4.299   4.156   1.724  0.5339 -0.2805  0.8356
 1299SOL    HW1 4384   4.381   4.110   1.704  0.0847  0.1880 -2.4022
 1299SOL    HW2 4385   4.326   4.240   1.759  1.5101  0.4376 -1.5487
 1299SOL     MW 4386   4.313   4.161   1.726  0.6013 -0.1287  0.1158
 1300SOL     OW 4387   3.140   4.284   1.073  0.3513  0.0167  0.4165
 1300SOL    HW1 4388   3.121   4.356   1.013  1.1302  0.0277  0.1864
 1300SOL    HW2 4389   3.069   4.288   1.138  0.4256  1.0252  0.4411
 1300SOL     MW 4390   3.128   4.293   1.074  0.4606  0.1473  0.3902
 1301SOL     OW 4391   4.120   3.767   0.834  0.2169  0.7486 -0.3156
 1301SOL    HW1 4392   4.036   3.805   0.808  0.2848  0.6491 -0.6903
 1301SOL    HW2 4393   4.181   3.794   0.765  1.2218  3.4509  1.5564
 1301SOL     MW 4394   4.117   3.775   0.822  0.3543  1.0817 -0.1239
 1302SOL     OW 4395   3.457   3.685   3.681 -0.7486  0.1991 -0.1771
 1302SOL    HW1 4396   3.463   3.597   3.718  2.1139 -0.3362 -1.7593
 1302SOL    HW2 4397   3.528   3.733   3.724  0.0621  0.6602 -1.9688
 1302SOL     MW 4398   3.467   3.680   3.691 -0.2782  0.1893 -0.6089
 1303SOL     OW 4399   3.310   0.827   2.141  0.7518 -0.3769 -0.0988
 1303SOL    HW1 4400   3.216   0.806   2.139  0.4927  0.4795  1.7378
 1303SOL    HW2 4401   3.313   0.921   2.126  1.4457 -0.6159 -1.5678
 1303SOL     MW 4402   3.298   0.836   2.139  0.8073 -0.2979 -0.0517
 1304SOL     OW 4403   3.857   4.495   4.400 -0.4139 -0.1764  0.0187
 1304SOL    HW1 4404   3.783   4.461   4.349 -1.0649 -1.7567  1.9130
 1304SOL    HW2 4405   3.862   4.588   4.378 -2.1986 -0.3159 -1.0522
 1304SOL     MW 4406   3.848   4.502   4.391 -0.7257 -0.3963  0.1240
 1305SOL     OW 4407   2.515   1.572   4.015  0.1191 -0.3105 -0.0926
 1305SOL    HW1 4408   2.595   1.550   4.062 -0.2180 -0.6636  0.3173
 1305SOL    HW2 4409   2.445   1.532   4.066 -0.2688 -0.5166 -0.7769
 1305SOL     MW 4410   2.516   1.564   4.027  0.0265 -0.3822 -0.1278
 1306SOL     OW 4411   0.213   1.920   2.662  0.5099 -0.3625  0.2505
 1306SOL    HW1 4412   0.307   1.916   2.642  0.1523 -2.6429 -1.0538
 1306SOL    HW2 4413   0.187   1.829   2.674 -1.6597  0.2199  0.0909
 1306SOL     MW 4414   0.222   1.908   2.661  0.1864 -0.5798  0.0632
 1307SOL     OW 4415   3.750   4.383   2.321  0.1498  0.8641 -0.2286
 1307SOL    HW1 4416   3.784   4.359   2.235  0.5584  0.4875  0.0350
 1307SOL    HW2 4417   3.825   4.419   2.367  0.3222 -0.4417  0.5375
 1307SOL     MW 4418   3.764   4.385   2.316  0.2241  0.6485 -0.0970
 1308SOL     OW 4419   0.480   1.788   3.560 -0.7593 -0.4115 -0.2707
 1308SOL    HW1 4420   0.421   1.723   3.521 -0.3959 -0.9445  0.0684
 1308SOL    HW2 4421   0.486   1.763   3.652  0.0133 -0.3691 -0.3072
 1308SOL     MW 4422   0.473   1.777   3.567 -0.6139 -0.4742 -0.2317
 1309SOL     OW 4423   0.953   1.531   1.352  0.6568  0.4878 -0.3377
 1309SOL    HW1 4424   0.967   1.598   1.418  1.0472 -1.3915  1.5359
 1309SOL    HW2 4425   0.875   1.560   1.304 -0.0042  1.5614  1.3398
 1309SOL     MW 4426   0.945   1.543   1.354  0.6222  0.3846  0.1168
 1310SOL     OW 4427   2.722   3.965   1.830 -0.0422 -0.1268 -0.0431
 1310SOL    HW1 4428   2.771   3.989   1.752  0.8544 -1.5909  0.0506
 1310SOL    HW2 4429   2.788   3.936   1.893 -0.7778  0.7394  1.1542
 1310SOL     MW 4430   2.737   3.964   1.828 -0.0217 -0.2034  0.1221
 1311SOL     OW 4431   1.981   5.284   4.189  0.1335  0.2413 -0.0671
 1311SOL    HW1 4432   1.988   5.282   4.284 -0.7015 -1.1581 -0.0276
 1311SOL    HW2 4433   2.058   5.332   4.160  1.1400 -0.5682  1.2370
 1311SOL     MW 4434   1.992   5.290   4.197  0.1556 -0.0415  0.1044
 1312SOL     OW 4435   5.355   2.437   0.301  0.0595  0.3273  0.1310
 1312SOL    HW1 4436   5.378   2.371   0.366 -2.2518 -0.4914  0.1605
 1312SOL    HW2 4437   5.316   2.508   0.352 -0.2408  0.4034 -0.2006
 1312SOL     MW 4438   5.353   2.438   0.316 -0.2747  0.2322  0.0923
 1313SOL     OW 4439   0.956   4.618   3.410 -0.0562  0.2889  0.1397
 1313SOL    HW1 4440   1.043   4.650   3.389 -0.0549  1.0825  1.2945
 1313SOL    HW2 4441   0.901   4.696   3.411 -0.8204 -0.2272 -0.7506
 1313SOL     MW 4442   0.960   4.632   3.408 -0.1538  0.3247  0.1736
 1314SOL     OW 4443   3.909   5.808   1.777  0.6920  0.0567 -0.5140
 1314SOL    HW1 4444   3.982   5.868   1.790  0.2114  0.5895 -0.2605
 1314SOL    HW2 4445   3.903   5.759   1.859  0.1972  0.6457 -0.1881
 1314SOL     MW 4446   3.917   5.809   1.789  0.5674  0.2003 -0.4399
 1315SOL     OW 4447   0.211   2.106   0.032  0.5763  0.0706  0.3837
 1315SOL    HW1 4448   0.158   2.181   0.004  1.5255  0.7018  0.2594
 1315SOL    HW2 4449   0.195   2.039  -0.034  1.5781  0.9959 -0.8146
 1315SOL     MW 4450   0.202   2.107   0.020  0.8261  0.2697  0.2143
 1316SOL     OW 4451   0.713   0.326   3.019 -0.3034  0.2226  0.4364
 1316SOL    HW1 4452   0.629   0.331   3.065  0.4129 -0.9151  1.9095
 1316SOL    HW2 4453   0.758   0.408   3.042 -0.2383 -0.0225  1.1950
 1316SOL     MW 4454   0.708   0.337   3.028 -0.2033  0.0456  0.7219
 1317SOL     OW 4455   2.034   0.011   0.788 -0.3471 -0.0877 -0.2892
 1317SOL    HW1 4456   2.020   0.077   0.856  1.0907 -1.6897  1.6203
 1317SOL    HW2 4457   1.949  -0.032   0.779 -0.3966 -0.2774  0.9780
 1317SOL     MW 4458   2.021   0.014   0.796 -0.1695 -0.3170  0.1174
 1318SOL     OW 4459   0.564   0.684   3.059  0.6956  0.0060 -0.4190
 1318SOL    HW1 4460   0.565   0.761   3.001 -0.0856  1.2519  1.1971
 1318SOL    HW2 4461   0.550   0.720   3.146 -0.3909 -2.0396  0.2757
 1318SOL     MW 4462   0.563   0.698   3.062  0.4565 -0.0964 -0.1233
 1319SOL     OW 4463   5.677   3.597   5.230 -0.1737 -0.2997 -0.2140
 1319SOL    HW1 4464   5.748   3.555   5.181 -0.1003  0.4087 -0.7191
 1319SOL    HW2 4465   5.697   3.690   5.226  0.8431 -0.3394  2.7554
 1319SOL     MW 4466   5.689   3.603   5.223 -0.0339 -0.2143  0.1016
 1320SOL     OW 4467   2.591   1.482   3.125  0.0451  0.1467 -0.8425
 1320SOL    HW1 4468   2.681   1.471   3.092  0.3161  0.3177 -0.1692
 1320SOL    HW2 4469   2.585   1.574   3.149 -0.8058  0.4866 -2.3105
 1320SOL     MW 4470   2.602   1.492   3.124 -0.0293  0.2122 -0.9444
 1321SOL     OW 4471   2.545   0.062   4.477 -0.4609  0.3850 -0.1146
 1321SOL    HW1 4472   2.504  -0.011   4.523  0.4112 -0.6537 -0.9659
 1321SOL    HW2 4473   2.529   0.044   4.384  0.1659  1.0343 -0.3540
 1321SOL     MW 4474   2.538   0.051   4.471 -0.2689  0.3351 -0.2542
 1322SOL     OW 4475   1.258   4.745   5.258 -0.4136  0.6738  0.2651
 1322SOL    HW1 4476   1.197   4.775   5.191 -1.8888 -0.2543  1.1726
 1322SOL    HW2 4477   1.270   4.652   5.240  0.6828  0.8246  0.1521
 1322SOL     MW 4478   1.252   4.737   5.247 -0.4621  0.5741  0.3667
 1323SOL     OW 4479   3.500   4.924   0.248 -0.3663 -0.3364  0.2050
 1323SOL    HW1 4480   3.586   4.947   0.213  0.4837 -3.0953  0.3174
 1323SOL    HW2 4481   3.517   4.904   0.341 -1.6733  1.9297  0.9567
 1323SOL     MW 4482   3.514   4.924   0.256 -0.4249 -0.3991  0.3156
 1324SOL     OW 4483   2.680   1.587   0.268  0.1970  0.3086 -0.3513
 1324SOL    HW1 4484   2.742   1.540   0.323 -1.3120 -0.2500  0.8981
 1324SOL    HW2 4485   2.643   1.654   0.326  0.3688  1.3027 -1.3725
 1324SOL     MW 4486   2.683   1.590   0.283  0.0260  0.3643 -0.3221
 1325SOL     OW 4487   3.036   2.186   1.063  0.2249  0.5010  0.2607
 1325SOL    HW1 4488   3.016   2.275   1.035 -1.1652  0.4175  0.9431
 1325SOL    HW2 4489   3.124   2.170   1.030  0.1882  1.8458 -0.5393
 1325SOL     MW 4490   3.044   2.196   1.055  0.0424  0.6623  0.2456
 1326SOL     OW 4491   5.833   2.231   4.363  0.3504 -0.2540  0.0869
 1326SOL    HW1 4492   5.913   2.254   4.315  0.1245  1.4544  0.4950
 1326SOL    HW2 4493   5.857   2.240   4.456 -0.1602 -0.2877  0.2248
 1326SOL     MW 4494   5.847   2.235   4.369  0.2561 -0.0396  0.1574
 1327SOL     OW 4495   2.081   5.189   4.802 -0.0409 -0.4305 -0.2551
 1327SOL    HW1 4496   1.995   5.159   4.771  0.2698 -2.8047  1.0237
 1327SOL    HW2 4497   2.144   5.140   4.749  0.5276  0.9382 -0.8505
 1327SOL     MW 4498   2.078   5.179   4.791  0.0715 -0.5593 -0.1678
 1328SOL     OW 4499   0.236   5.771   4.716 -0.2494  0.1681 -0.3452
 1328SOL    HW1 4500   0.325   5.784   4.683 -0.1813  2.3125  0.6466
 1328SOL    HW2 4501   0.180   5.789   4.640  0.0798  0.4903 -0.5116
 1328SOL     MW 4502   0.240   5.775   4.702 -0.1985  0.4840 -0.2398
 1329SOL     OW 4503   1.213   1.465   2.183 -0.4645 -0.0132  0.5969
 1329SOL    HW1 4504   1.157   1.505   2.250 -0.7315  2.0725 -0.8183
 1329SOL    HW2 4505   1.296   1.511   2.191 -0.2348 -0.3334  0.0515
 1329SOL     MW 4506   1.216   1.476   2.193 -0.4692  0.2129  0.3459
 1330SOL     OW 4507   4.177   1.352   4.147  0.3333 -0.3994  0.1461
 1330SOL    HW1 4508   4.099   1.306   4.116 -0.2439 -0.1010  1.1391
 1330SOL    HW2 4509   4.153   1.444   4.145  0.6406 -0.3102  0.5025
 1330SOL     MW 4510   4.164   1.358   4.143  0.2990 -0.3499  0.3190
 1331SOL     OW 4511   1.990   3.693   5.811  0.0464  0.3040 -0.0971
 1331SOL    HW1 4512   2.069   3.653   5.849 -0.5696 -0.8872 -0.0268
 1331SOL    HW2 4513   1.923   3.624   5.818 -1.3908  1.7740  1.1588
 1331SOL     MW 4514   1.991   3.679   5.817 -0.2165  0.3397  0.0730
 1332SOL     OW 4515   1.284   3.322   2.399 -0.1926 -0.3421  0.1711
 1332SOL    HW1 4516   1.354   3.260   2.418 -0.6444 -0.6396  0.9159
 1332SOL    HW2 4517   1.268   3.314   2.305  0.5109 -0.5455  0.0716
 1332SOL     MW 4518   1.291   3.313   2.390 -0.1602 -0.4063  0.2537
 1333SOL     OW 4519   5.259   0.632   1.984 -0.0654 -0.4280 -0.7450
 1333SOL    HW1 4520   5.274   0.592   1.899 -1.2322 -1.0520 -0.6622
 1333SOL    HW2 4521   5.339   0.683   2.001  0.4478 -0.8372 -1.8954
 1333SOL     MW 4522   5.271   0.633   1.975 -0.1493 -0.5603 -0.8817
 1334SOL     OW 4523   4.999   3.386   4.819 -0.3520 -0.5044  0.4449
 1334SOL    HW1 4524   4.953   3.385   4.735  1.4772  0.5265 -0.6021
 1334SOL    HW2 4525   4.974   3.469   4.859  1.6669  0.7436 -0.7793
 1334SOL     MW 4526   4.990   3.396   4.813  0.1407 -0.2127  0.1540
 1335SOL     OW 4527   2.800   1.815   4.096 -0.4612 -0.2993 -0.2019
 1335SOL    HW1 4528   2.752   1.895   4.115 -2.3524 -1.4692  0.1032
 1335SOL    HW2 4529   2.890   1.833   4.123 -1.0422  1.4129  0.6348
 1335SOL     MW 4530   2.805   1.827   4.102 -0.7775 -0.2298 -0.0553
 1336SOL     OW 4531   2.535   1.719   5.483 -0.2766 -0.3039 -0.0660
 1336SOL    HW1 4532   2.618   1.712   5.529 -0.4497  2.6608  0.7902
 1336SOL    HW2 4533   2.558   1.751   5.396 -0.3885 -1.1256 -0.4046
 1336SOL     MW 4534   2.548   1.722   5.477 -0.3130 -0.0294  0.0005
 1337SOL     OW 4535   5.001   2.813   5.516 -0.0888  0.4944  0.3155
 1337SOL    HW1 4536   5.045   2.782   5.436 -0.0510 -0.8917  0.8700
 1337SOL    HW2 4537   4.911   2.783   5.506 -0.4885  1.7448  0.0460
 1337SOL     MW 4538   4.995   2.805   5.504 -0.1354  0.4771  0.3514
 1338SOL     OW 4539   0.991   3.849   5.473 -0.5626 -0.1555 -0.4060
 1338SOL    HW1 4540   1.037   3.794   5.536  0.0253  0.3925 -0.3515
 1338SOL    HW2 4541   1.037   3.933   5.476 -2.0985  0.6822  0.2878
 1338SOL     MW 4542   1.003   3.853   5.481 -0.6839  0.0219 -0.3104
 1339SOL     OW 4543   2.538   2.219   1.216 -0.1655 -0.0398  0.1647
 1339SOL    HW1 4544   2.524   2.193   1.125  0.9091 -0.2696  0.0528
 1339SOL    HW2 4545   2.553   2.137   1.263  0.4368  0.1555  0.3265
 1339SOL     MW 4546   2.538   2.205   1.210  0.0494 -0.0441  0.1711
 1340SOL     OW 4547   0.835   3.265   4.675 -0.4858 -0.3674 -0.6682
 1340SOL    HW1 4548   0.796   3.288   4.759  1.0356 -2.9775  0.8383
 1340SOL    HW2 4549   0.927   3.287   4.684 -0.6809  1.2692 -2.4413
 1340SOL     MW 4550   0.841   3.270   4.687 -0.3160 -0.4919 -0.7019
 1341SOL     OW 4551   1.839   4.895   4.212  0.0305  0.5843 -0.3626
 1341SOL    HW1 4552   1.854   4.855   4.297  0.6068  0.3639 -0.5666
 1341SOL    HW2 4553   1.914   4.868   4.159 -1.1711 -0.7218 -1.4624
 1341SOL     MW 4554   1.851   4.886   4.216 -0.0496  0.3886 -0.5298
 1342SOL     OW 4555   4.497   5.836   3.162 -0.2887  0.4452 -0.0708
 1342SOL    HW1 4556   4.554   5.897   3.209  0.5007 -0.7884  0.5926
 1342SOL    HW2 4557   4.409   5.859   3.191 -0.0077  1.3494  0.0791
 1342SOL     MW 4558   4.493   5.847   3.172 -0.1526  0.4029  0.0331
 1343SOL     OW 4559   2.389   3.937   4.699 -0.7068 -0.0044  0.5572
 1343SOL    HW1 4560   2.421   3.894   4.778 -0.4414 -2.5134 -0.8490
 1343SOL    HW2 4561   2.405   4.030   4.713  1.3265 -0.6278  2.5506
 1343SOL     MW 4562   2.395   3.944   4.711 -0.4125 -0.4053  0.6328
 1344SOL     OW 4563   0.453   2.821   2.010  0.6443  0.1683 -0.3837
 1344SOL    HW1 4564   0.479   2.766   1.936  3.0426  1.7694 -0.7500
 1344SOL    HW2 4565   0.515   2.799   2.079 -0.9331 -0.5386  0.8650
 1344SOL     MW 4566   0.464   2.811   2.010  0.7494  0.2828 -0.2706
 1345SOL     OW 4567   2.752   2.632   3.271  0.1845  0.0501  0.3527
 1345SOL    HW1 4568   2.741   2.595   3.358  0.2810  2.7913  1.5953
 1345SOL    HW2 4569   2.817   2.702   3.282  1.5815 -0.7334 -2.2999
 1345SOL     MW 4570   2.759   2.636   3.283  0.3755  0.3009  0.1724
 1346SOL     OW 4571   2.388   1.199   0.069 -0.6478  0.2838 -0.1580
 1346SOL    HW1 4572   2.397   1.129   0.133 -0.9613 -1.7255 -2.2257
 1346SOL    HW2 4573   2.386   1.280   0.121  2.5963 -0.9913  2.1103
 1346SOL     MW 4574   2.389   1.200   0.084 -0.2725 -0.1365 -0.1324
 1347SOL     OW 4575   3.745   4.124   0.376  0.5638 -0.1629 -0.4130
 1347SOL    HW1 4576   3.677   4.057   0.377 -0.8300  1.2105  0.2757
 1347SOL    HW2 4577   3.764   4.137   0.283  0.8838 -1.5504 -0.5385
 1347SOL     MW 4578   3.739   4.117   0.364  0.4261 -0.1650 -0.3409
 1348SOL     OW 4579   5.175   1.400   3.232  0.1325  0.1607  0.2302
 1348SOL    HW1 4580   5.185   1.339   3.159 -1.1268 -0.2936  0.4240
 1348SOL    HW2 4581   5.112   1.465   3.200 -0.3013  0.0502  0.8557
 1348SOL     MW 4582   5.168   1.401   3.218 -0.0839  0.0885  0.3352
 1349SOL     OW 4583   3.151   5.396   0.458  0.0566 -0.4229  0.1151
 1349SOL    HW1 4584   3.095   5.328   0.497  1.0759 -1.8827 -0.8945
 1349SOL    HW2 4585   3.145   5.379   0.364  0.8817  0.4598 -0.0898
 1349SOL     MW 4586   3.143   5.385   0.451  0.2928 -0.4964 -0.0404
 1350SOL     OW 4587   1.214   5.523   3.102  0.2287  0.3195 -0.1191
 1350SOL    HW1 4588   1.171   5.446   3.063  0.5737  0.5532 -0.9585
 1350SOL    HW2 4589   1.302   5.524   3.064  0.5042  0.6738  0.5060
 1350SOL     MW 4590   1.220   5.513   3.092  0.3080  0.3948 -0.1466
 1351SOL     OW 4591   1.541   2.163   2.057 -0.1298 -0.7141  0.1817
 1351SOL    HW1 4592   1.491   2.097   2.010 -0.9882  0.5813 -0.7651
 1351SOL    HW2 4593   1.501   2.167   2.144 -1.5961  0.2265 -0.5322
 1351SOL     MW 4594   1.530   2.155   2.062 -0.4272 -0.4277 -0.0310
 1352SOL     OW 4595   4.630   5.670   0.051  0.4767 -0.1589  0.2828
 1352SOL    HW1 4596   4.576   5.664  -0.028 -0.0066  1.5419  0.4529
 1352SOL    HW2 4597   4.569   5.660   0.123  0.2702  2.2739  0.4858
 1352SOL     MW 4598   4.615   5.668   0.050  0.3881  0.3705  0.3306
 1353SOL     OW 4599   5.992   0.044   3.033  0.0479  0.5328 -0.0678
 1353SOL    HW1 4600   5.950   0.083   2.957  2.5179  1.4136 -1.0490
 1353SOL    HW2 4601   5.985  -0.050   3.020 -1.2643  0.6735 -0.3838
 1353SOL     MW 4602   5.986   0.037   3.022  0.1955  0.6636 -0.2339
 1354SOL     OW 4603   4.916   1.860   2.642  0.2613 -0.0041  0.1151
 1354SOL    HW1 4604   4.895   1.784   2.698  0.3447 -1.8836 -2.3210
 1354SOL    HW2 4605   4.885   1.834   2.555  1.1442  2.4153 -0.9471
 1354SOL     MW 4606   4.909   1.847   2.638  0.3848  0.0650 -0.3326
 1355SOL     OW 4607   4.325   4.812   0.875  0.1782 -0.0278 -0.0259
 1355SOL    HW1 4608   4.403   4.833   0.824 -0.0210  0.2555 -0.2121
 1355SOL    HW2 4609   4.261   4.877   0.849 -0.1765 -0.3624  0.0105
 1355SOL     MW 4610   4.327   4.823   0.865  0.1063 -0.0343 -0.0451
 1356SOL     OW 4611   1.436   2.344   0.351  0.4127  0.3973  0.4508
 1356SOL    HW1 4612   1.412   2.381   0.436 -0.0561 -1.7293  1.2483
 1356SOL    HW2 4613   1.353   2.335   0.304  0.1998 -2.1762  1.2880
 1356SOL     MW 4614   1.422   2.348   0.356  0.3253 -0.2046  0.6601
 1357SOL     OW 4615   5.497   5.049   5.027 -1.0914  0.0518 -0.3195
 1357SOL    HW1 4616   5.424   5.085   5.078 -0.4534  0.9500 -0.0341
 1357SOL    HW2 4617   5.575   5.088   5.065 -0.5499  0.1229 -1.4701
 1357SOL     MW 4618   5.497   5.059   5.038 -0.9398  0.1764 -0.4301
 1358SOL     OW 4619   5.194   5.794   0.639 -0.2202  0.1866 -0.2117
 1358SOL    HW1 4620   5.120   5.740   0.668  0.1981 -0.4895 -0.4058
 1358SOL    HW2 4621   5.176   5.811   0.546 -0.2495  0.2173 -0.2006
 1358SOL     MW 4622   5.182   5.790   0.631 -0.1707  0.1035 -0.2351
 1359SOL     OW 4623   3.618   4.164   3.462  0.4776  0.0086 -0.1890
 1359SOL    HW1 4624   3.698   4.216   3.458 -0.4187  1.4920  0.8294
 1359SOL    HW2 4625   3.569   4.202   3.535 -0.8673 -1.3044 -0.4007
 1359SOL     MW 4626   3.622   4.175   3.471  0.1907  0.0305 -0.0856
 1360SOL     OW 4627   3.215   1.072   5.233 -0.0264  0.7462 -0.4952
 1360SOL    HW1 4628   3.174   1.033   5.156  1.2290 -3.7623  0.9718
 1360SOL    HW2 4629   3.142   1.104   5.285 -1.1882 -0.3434 -1.4123
 1360SOL     MW 4630   3.200   1.071   5.230 -0.0143  0.0296 -0.4249
 1361SOL     OW 4631   4.316   3.018   3.745  0.1361 -0.0112  0.2210
 1361SOL    HW1 4632   4.229   2.986   3.772  0.0279 -0.1898 -0.3299
 1361SOL    HW2 4633   4.297   3.085   3.679  0.4474 -1.1986 -1.1113
 1361SOL     MW 4634   4.302   3.022   3.740  0.1616 -0.1862 -0.0200
 1362SOL     OW 4635   2.502   2.769   4.963 -0.0632  0.1245 -0.0655
 1362SOL    HW1 4636   2.509   2.789   5.056 -0.9249  0.1877 -0.0072
 1362SOL    HW2 4637   2.586   2.730   4.940  1.0658  2.2910  0.2108
 1362SOL     MW 4638   2.514   2.767   4.972 -0.0291  0.4101 -0.0224
 1363SOL     OW 4639   5.340   5.355   5.114  0.2858 -0.8236 -0.1794
 1363SOL    HW1 4640   5.325   5.409   5.192 -0.2565 -0.0576 -0.8062
 1363SOL    HW2 4641   5.367   5.270   5.149 -1.5602 -0.9958  0.8983
 1363SOL     MW 4642   5.341   5.351   5.129 -0.0196 -0.7477 -0.1216
 1364SOL     OW 4643   4.785   5.474   2.281  0.1968 -0.2354 -0.8170
 1364SOL    HW1 4644   4.748   5.392   2.314 -0.5441  1.1947  1.9853
 1364SOL    HW2 4645   4.709   5.523   2.249  0.1168  0.9993  1.2000
 1364SOL     MW 4646   4.770   5.470   2.281  0.0916  0.1054 -0.1998
 1365SOL     OW 4647   1.871   3.468   0.330 -0.0025 -0.0130  0.1094
 1365SOL    HW1 4648   1.858   3.401   0.397 -2.5745  0.0164 -0.3439
 1365SOL    HW2 4649   1.882   3.550   0.380  0.2010 -0.3036  0.5483
 1365SOL     MW 4650   1.871   3.470   0.345 -0.3057 -0.0465  0.1075
 1366SOL     OW 4651   5.296   1.042   3.368 -0.2324  0.0717 -0.0873
 1366SOL    HW1 4652   5.296   0.995   3.452  0.9542  1.5644  0.7584
 1366SOL    HW2 4653   5.234   0.992   3.314 -0.6676 -1.1870  1.5059
 1366SOL     MW 4654   5.288   1.029   3.372 -0.1364  0.1017  0.2248
 1367SOL     OW 4655   1.465   5.032   2.526  0.4985 -0.3986  0.2405
 1367SOL    HW1 4656   1.523   4.963   2.558  1.1519 -0.3028 -0.7309
 1367SOL    HW2 4657   1.378   4.991   2.524  0.7025 -0.8598  0.6872
 1367SOL     MW 4658   1.461   5.018   2.530  0.6082 -0.4444  0.1733
 1368SOL     OW 4659   0.487   2.807   5.479 -0.0296 -0.2418  0.3512
 1368SOL    HW1 4660   0.431   2.806   5.557 -4.3799 -1.8327 -2.6126
 1368SOL    HW2 4661   0.553   2.740   5.497 -2.0981 -1.9429  1.9903
 1368SOL     MW 4662   0.488   2.798   5.491 -0.8513 -0.6633  0.1817
 1369SOL     OW 4663   5.771   3.262   1.575 -0.1579 -0.1338  0.2333
 1369SOL    HW1 4664   5.779   3.285   1.483  1.3903 -0.2403  0.3331
 1369SOL    HW2 4665   5.759   3.167   1.575  1.1693 -0.3034  0.2034
 1369SOL     MW 4666   5.770   3.252   1.563  0.2103 -0.1695  0.2422
 1370SOL     OW 4667   4.235   2.621   4.595 -0.1268  0.3253  0.0719
 1370SOL    HW1 4668   4.156   2.671   4.572  0.0678 -0.4428 -2.4138
 1370SOL    HW2 4669   4.272   2.595   4.511  2.4655  0.1334  1.2178
 1370SOL     MW 4670   4.229   2.624   4.581  0.2298  0.2022 -0.0997
 1371SOL     OW 4671   4.213   3.606   5.281  0.1712  0.3453 -0.0738
 1371SOL    HW1 4672   4.123   3.593   5.250  0.5521  0.7534 -1.4057
 1371SOL    HW2 4673   4.251   3.667   5.217  1.5510 -0.2270  0.1871
 1371SOL     MW 4674   4.206   3.612   5.269  0.3967  0.3240 -0.2112
 1372SOL     OW 4675   4.372   4.845   3.060  0.4045  0.8897 -0.1532
 1372SOL    HW1 4676   4.276   4.845   3.051  0.3340 -1.1750  0.3441
 1372SOL    HW2 4677   4.401   4.776   3.000  1.4701  0.6694  0.6098
 1372SOL     MW 4678   4.363   4.836   3.051  0.5322  0.5970  0.0083
 1373SOL     OW 4679   0.835   0.271   5.753 -0.8127  0.3665 -0.7487
 1373SOL    HW1 4680   0.879   0.232   5.677 -1.6422 -0.2175 -0.9324
 1373SOL    HW2 4681   0.888   0.242   5.828  0.6203  1.8020 -1.1690
 1373SOL     MW 4682   0.848   0.262   5.752 -0.7355  0.4755 -0.8264
 1374SOL     OW 4683   5.469   3.175   3.482 -0.4678  0.2122  0.1027
 1374SOL    HW1 4684   5.551   3.165   3.531 -0.6561 -0.2522  0.3252
 1374SOL    HW2 4685   5.402   3.185   3.549 -0.6708 -0.0033 -0.0673
 1374SOL     MW 4686   5.471   3.175   3.497 -0.5183  0.1254  0.1097
 1375SOL     OW 4687   5.591   3.336   4.937 -0.1429  0.2208 -0.1483
 1375SOL    HW1 4688   5.577   3.413   4.881  0.3616 -0.9402 -1.9081
 1375SOL    HW2 4689   5.683   3.343   4.964  0.3465 -0.5336 -1.5471
 1375SOL     MW 4690   5.601   3.347   4.933 -0.0157 -0.0241 -0.5531
 1376SOL     OW 4691   0.296   1.557   0.966  0.2631  0.0905  0.1432
 1376SOL    HW1 4692   0.300   1.479   0.910  0.8548  0.3469 -0.1812
 1376SOL    HW2 4693   0.317   1.525   1.053  1.6004  0.0614 -0.1756
 1376SOL     MW 4694   0.299   1.543   0.970  0.5100  0.1196  0.0609
 1377SOL     OW 4695   1.701   4.927   5.367 -0.7686  0.3018 -0.4711
 1377SOL    HW1 4696   1.702   4.884   5.282 -0.4274  0.9032 -0.7784
 1377SOL    HW2 4697   1.640   4.876   5.419  1.0880 -1.7458 -0.1914
 1377SOL     MW 4698   1.694   4.915   5.363 -0.4873  0.1173 -0.4745
 1378SOL     OW 4699   0.344   4.618   3.939 -0.5377 -0.2796 -0.4592
 1378SOL    HW1 4700   0.264   4.652   3.898 -1.4055  0.0317  1.4516
 1378SOL    HW2 4701   0.408   4.690   3.930 -0.4420 -0.5430 -2.0169
 1378SOL     MW 4702   0.342   4.632   3.933 -0.6365 -0.2737 -0.4139
 1379SOL     OW 4703   3.111   5.257   5.804  0.0997 -0.2220 -0.4429
 1379SOL    HW1 4704   3.199   5.257   5.843 -0.8200  1.1410  1.7333
 1379SOL    HW2 4705   3.107   5.338   5.753  0.6328 -1.0606 -1.8421
 1379SOL     MW 4706   3.122   5.267   5.803  0.0501 -0.1554 -0.3433
 1380SOL     OW 4707   0.978   2.708   1.081  0.2806 -1.1470 -0.4201
 1380SOL    HW1 4708   0.905   2.729   1.139  1.2196  1.4694 -0.1356
 1380SOL    HW2 4709   0.956   2.621   1.045 -0.8767 -2.3032  2.9036
 1380SOL     MW 4710   0.966   2.699   1.084  0.2526 -0.9603  0.0417
 1381SOL     OW 4711   0.064   3.312   1.670  0.2733 -0.5101 -0.0599
 1381SOL    HW1 4712   0.096   3.235   1.716 -1.1138 -0.7813  0.4749
 1381SOL    HW2 4713   0.026   3.278   1.589  0.0391 -0.3517 -0.0184
 1381SOL     MW 4714   0.063   3.298   1.665  0.0658 -0.5245  0.0138
 1382SOL     OW 4715   4.699   1.390   1.575  0.3265 -0.0384  0.3015
 1382SOL    HW1 4716   4.663   1.427   1.656  0.3850 -1.0522  0.7937
 1382SOL    HW2 4717   4.764   1.326   1.604 -0.4541 -1.2238 -0.5218
 1382SOL     MW 4718   4.702   1.387   1.589  0.2337 -0.3200  0.2590
 1383SOL     OW 4719   4.601   5.791   2.924 -0.6693  0.5630 -0.3005
 1383SOL    HW1 4720   4.551   5.788   3.005 -1.2522 -0.2542 -0.6872
 1383SOL    HW2 4721   4.576   5.712   2.876  2.6770 -1.0567  0.4776
 1383SOL     MW 4722   4.591   5.781   2.928 -0.3157  0.2518 -0.2506
 1384SOL     OW 4723   0.116   2.421   1.223  0.2378 -0.0058  0.8141
 1384SOL    HW1 4724   0.091   2.336   1.259 -3.5010  0.3221 -0.7406
 1384SOL    HW2 4725   0.137   2.403   1.131 -0.4463  0.6817  0.5092
 1384SOL     MW 4726   0.115   2.408   1.216 -0.3284  0.1242  0.5761
 1385SOL     OW 4727   5.901   5.626   0.567 -0.1914 -0.2157  0.8258
 1385SOL    HW1 4728   5.920   5.532   0.568  1.8503  0.1011 -2.0178
 1385SOL    HW2 4729   5.825   5.635   0.624  0.0027 -3.4951  1.7319
 1385SOL     MW 4730   5.894   5.615   0.574  0.0949 -0.5946  0.5777
 1386SOL     OW 4731   2.413   0.569   4.477 -0.2542  0.5795  0.3515
 1386SOL    HW1 4732   2.456   0.497   4.522  0.3098  1.5040  1.3181
 1386SOL    HW2 4733   2.337   0.590   4.531 -2.1636 -1.2684 -1.5274
 1386SOL     MW 4734   2.409   0.563   4.489 -0.4263  0.4613  0.2346
 1387SOL     OW 4735   2.133   3.996   4.814 -0.5283  0.4791  0.1206
 1387SOL    HW1 4736   2.209   3.986   4.756  0.5795  1.1439  1.4366
 1387SOL    HW2 4737   2.143   4.083   4.852 -0.8722 -0.2244  1.8410
 1387SOL     MW 4738   2.144   4.006   4.811 -0.4308  0.4745  0.5093
 1388SOL     OW 4739   5.232   3.941   4.964  0.1382 -0.2620  0.1730
 1388SOL    HW1 4740   5.276   4.019   4.931  0.1379  0.1949  1.2551
 1388SOL    HW2 4741   5.296   3.898   5.019 -0.1702 -0.5524  0.3091
 1388SOL     MW 4742   5.246   3.945   4.967  0.0987 -0.2408  0.3285
 1389SOL     OW 4743   0.567   5.463   4.956  0.2839  0.2908  0.4711
 1389SOL    HW1 4744   0.584   5.488   5.047 -0.5270  1.5799  0.2696
 1389SOL    HW2 4745   0.472   5.465   4.948  0.3179 -0.5328 -0.2146
 1389SOL     MW 4746   0.557   5.466   4.966  0.1845  0.3505  0.3576
 1390SOL     OW 4747   5.052   0.829   1.375  0.6051  0.1147  0.6233
 1390SOL    HW1 4748   5.008   0.909   1.405  0.1490  0.4184 -0.8095
 1390SOL    HW2 4749   4.993   0.759   1.402 -0.0969  0.4260 -0.0762
 1390SOL     MW 4750   5.038   0.831   1.382  0.4573  0.1935  0.3504
 1391SOL     OW 4751   0.463   4.697   4.555  0.1341  0.1691 -0.6022
 1391SOL    HW1 4752   0.459   4.759   4.482 -2.1538 -0.4135 -1.0185
 1391SOL    HW2 4753   0.461   4.611   4.514 -1.0402 -0.1586  0.1091
 1391SOL     MW 4754   0.462   4.694   4.540 -0.3091  0.0529 -0.5641
 1392SOL     OW 4755   1.839   0.534   3.294  0.0710 -0.2172 -0.4060
 1392SOL    HW1 4756   1.908   0.530   3.360  1.7707 -1.2874 -2.1698
 1392SOL    HW2 4757   1.802   0.445   3.293 -1.0608  0.2422  0.2452
 1392SOL     MW 4758   1.843   0.522   3.302  0.1436 -0.2955 -0.5484
 1393SOL     OW 4759   5.796   1.094   1.981  0.2653  0.1960  0.5420
 1393SOL    HW1 4760   5.762   1.025   1.924  1.2582 -0.5506  0.8527
 1393SOL    HW2 4761   5.744   1.171   1.958 -1.7717 -0.9546  1.0988
 1393SOL     MW 4762   5.785   1.095   1.971  0.1316 -0.0470  0.6530
 1394SOL     OW 4763   2.779   4.032   4.319  0.2237 -0.0166  0.1688
 1394SOL    HW1 4764   2.851   4.035   4.256 -0.5094  1.0998 -0.6306
 1394SOL    HW2 4765   2.747   4.122   4.323  1.7419  0.4357  3.8913
 1394SOL     MW 4766   2.784   4.044   4.311  0.3242  0.1845  0.5431
 1395SOL     OW 4767   2.986   0.989   2.058  0.3549  0.4254  0.3468
 1395SOL    HW1 4768   3.063   1.040   2.083  0.2659  1.1659 -0.8232
 1395SOL    HW2 4769   2.995   0.906   2.106  1.0892  1.0952  1.3781
 1395SOL     MW 4770   2.997   0.985   2.067  0.4375  0.6059  0.3290
 1396SOL     OW 4771   0.823   0.567   3.070 -0.0879 -0.1575 -0.5342
 1396SOL    HW1 4772   0.869   0.600   3.147  0.5880 -0.6708 -0.7136
 1396SOL    HW2 4773   0.746   0.623   3.062  1.7426  2.2935 -1.6507
 1396SOL     MW 4774   0.819   0.578   3.079  0.2330  0.0906 -0.7005
 1397SOL     OW 4775   0.460   5.896   5.819  0.0136  0.6983 -0.2122
 1397SOL    HW1 4776   0.532   5.853   5.773  0.9996  1.5191  0.5319
 1397SOL    HW2 4777   0.431   5.833   5.885 -0.6184 -0.0217 -1.1744
 1397SOL     MW 4778   0.465   5.883   5.822  0.0589  0.7114 -0.2403
 1398SOL     OW 4779   3.400   0.050   5.532 -0.0954  0.0768  0.4896
 1398SOL    HW1 4780   3.323  -0.007   5.533 -0.9668  1.1897 -1.0090
 1398SOL    HW2 4781   3.462   0.007   5.591 -1.1525 -1.8099  0.2740
 1398SOL     MW 4782   3.398   0.037   5.540 -0.3424 -0.0222  0.2704
 1399SOL     OW 4783   3.856   0.252   2.297 -0.4428  0.4312  0.3748
 1399SOL    HW1 4784   3.882   0.174   2.248  1.0675  1.0262  0.1988
 1399SOL    HW2 4785   3.770   0.276   2.262  0.1526  0.2347 -1.2467
 1399SOL     MW 4786   3.849   0.245   2.286 -0.1733  0.4822  0.1445
 1400SOL     OW 4787   4.055   3.583   2.891  0.0896  0.8035  0.5956
 1400SOL    HW1 4788   3.999   3.651   2.855  1.5567  1.6069 -0.2322
 1400SOL    HW2 4789   3.996   3.511   2.911 -0.8790  0.5081 -2.9558
 1400SOL     MW 4790   4.041   3.583   2.889  0.1535  0.8683  0.0348
 1401SOL     OW 4791   3.880   2.130   3.023  0.5332  0.3025  0.5515
 1401SOL    HW1 4792   3.970   2.111   3.048  0.6582  0.3562  0.1419
 1401SOL    HW2 4793   3.882   2.135   2.927 -0.2529 -1.5852  0.4156
 1401SOL     MW 4794   3.892   2.128   3.014  0.4487  0.0675  0.4816
 1402SOL     OW 4795   2.323   5.701   0.114 -0.3157 -0.0365 -0.2355
 1402SOL    HW1 4796   2.245   5.741   0.077 -2.0577 -2.0193  1.2326
 1402SOL    HW2 4797   2.380   5.775   0.135 -2.7384  1.5736  0.8294
 1402SOL     MW 4798   2.321   5.716   0.112 -0.8488 -0.0844  0.0888
 1403SOL     OW 4799   5.936   0.195   0.216 -0.2506  0.1731 -0.1470
 1403SOL    HW1 4800   5.938   0.273   0.161  0.4395  1.0412  1.0727
 1403SOL    HW2 4801   6.004   0.210   0.282 -1.2619 -0.6788  1.1323
 1403SOL     MW 4802   5.945   0.207   0.218 -0.2913  0.1752  0.1729
 1404SOL     OW 4803   2.620   0.391   0.535 -0.1880 -0.0531 -0.2821
 1404SOL    HW1 4804   2.560   0.462   0.511 -0.4203 -0.2179 -0.1890
 1404SOL    HW2 4805   2.707   0.431   0.532 -0.3182  0.2315 -0.2478
 1404SOL     MW 4806   2.624   0.405   0.532 -0.2339 -0.0378 -0.2658
 1405SOL     OW 4807   5.425   1.698   0.479  0.3797 -0.7782  0.1880
 1405SOL    HW1 4808   5.508   1.714   0.524  0.4812  0.9645 -0.5879
 1405SOL    HW2 4809   5.360   1.743   0.532  0.2180 -0.3895 -0.3435
 1405SOL     MW 4810   5.427   1.706   0.491  0.3715 -0.5053  0.0206
 1406SOL     OW 4811   1.485   5.450   2.288  0.3646 -0.3285 -0.0034
 1406SOL    HW1 4812   1.398   5.457   2.325 -0.3025 -1.5866 -1.2909
 1406SOL    HW2 4813   1.501   5.536   2.249 -0.6300 -0.3428 -0.4572
 1406SOL     MW 4814   1.476   5.462   2.288  0.1520 -0.4916 -0.2263
 1407SOL     OW 4815   2.817   1.313   4.597 -0.1066  0.2330  0.5117
 1407SOL    HW1 4816   2.773   1.231   4.618  1.1637 -0.8631 -1.0453
 1407SOL    HW2 4817   2.906   1.288   4.574 -0.4937  1.6689 -2.9362
 1407SOL     MW 4818   2.823   1.300   4.597  0.0067  0.2766 -0.1287
 1408SOL     OW 4819   1.758   5.252   2.749 -0.8097  0.2835 -0.4467
 1408SOL    HW1 4820   1.726   5.162   2.744 -1.6605  0.5150  0.7062
 1408SOL    HW2 4821   1.680   5.307   2.746 -0.2803  1.0035 -1.4152
 1408SOL     MW 4822   1.744   5.248   2.748 -0.8508  0.4048 -0.4232
 1409SOL     OW 4823   4.947   2.333   2.708 -0.4038 -0.5345  0.2531
 1409SOL    HW1 4824   5.034   2.306   2.738  0.4448  0.8096 -0.9577
 1409SOL    HW2 4825   4.895   2.253   2.710  1.2214 -1.6241 -0.2534
 1409SOL     MW 4826   4.952   2.320   2.712 -0.0868 -0.5019  0.0334
 1410SOL     OW 4827   5.497   0.578   3.077  0.1598 -0.4629  0.0862
 1410SOL    HW1 4828   5.539   0.658   3.048  1.1556 -0.9450  0.1944
 1410SOL    HW2 4829   5.568   0.522   3.108 -0.4497 -1.6446 -0.5897
 1410SOL     MW 4830   5.511   0.581   3.077  0.2093 -0.6759  0.0134
 1411SOL     OW 4831   1.309   2.142   1.021  0.0348 -0.0260 -0.6589
 1411SOL    HW1 4832   1.401   2.139   0.997 -0.0280 -1.2560 -0.7840
 1411SOL    HW2 4833   1.262   2.134   0.938 -0.1775 -0.9689 -0.4532
 1411SOL     MW 4834   1.315   2.140   1.007 -0.0005 -0.3040 -0.6489
 1412SOL     OW 4835   3.540   4.239   4.770 -0.0183 -0.0137  0.4572
 1412SOL    HW1 4836   3.459   4.272   4.808  0.0282 -0.9161  1.3729
 1412SOL    HW2 4837   3.533   4.259   4.677 -1.6661 -0.8574  0.3936
 1412SOL     MW 4838   3.529   4.246   4.763 -0.2234 -0.2375  0.5665
 1413SOL     OW 4839   1.010   3.021   2.041 -0.1080 -0.9054 -0.2373
 1413SOL    HW1 4840   0.972   2.935   2.059 -1.4153 -0.2590  0.1284
 1413SOL    HW2 4841   0.937   3.074   2.009  1.0232 -0.4040 -2.1159
 1413SOL     MW 4842   0.996   3.017   2.039 -0.1306 -0.7586 -0.4308
 1414SOL     OW 4843   4.949   4.648   5.213 -0.1112 -0.1973 -0.3595
 1414SOL    HW1 4844   5.037   4.639   5.249  0.0646  1.3723 -0.3831
 1414SOL    HW2 4845   4.898   4.580   5.256  0.5284  0.5022  1.5220
 1414SOL     MW 4846   4.953   4.638   5.223 -0.0067  0.0935 -0.1211
 1415SOL     OW 4847   1.282   2.741   3.159  0.0396 -0.3137  0.6923
 1415SOL    HW1 4848   1.187   2.741   3.156  0.0353 -2.0673  0.1692
 1415SOL    HW2 4849   1.304   2.751   3.251 -0.6420  0.1817  0.8018
 1415SOL     MW 4850   1.273   2.742   3.170 -0.0482 -0.4747  0.6392
 1416SOL     OW 4851   5.998   0.927   0.647  0.2062 -0.6867 -0.3099
 1416SOL    HW1 4852   5.975   0.965   0.562 -0.2575  0.1979  0.2005
 1416SOL    HW2 4853   5.928   0.864   0.665 -2.0877  2.2239  1.3879
 1416SOL     MW 4854   5.986   0.924   0.638 -0.1469 -0.2009 -0.0272
 1417SOL     OW 4855   5.200   5.942   5.819  0.5362 -0.3835 -0.4456
 1417SOL    HW1 4856   5.258   5.873   5.852 -0.4296 -1.1411 -0.3159
 1417SOL    HW2 4857   5.198   5.927   5.724 -0.3425 -1.0543 -0.3206
 1417SOL     MW 4858   5.207   5.931   5.811  0.3004 -0.5665 -0.4129
 1418SOL     OW 4859   0.104   2.065   4.581  0.1010 -0.6551  0.3980
 1418SOL    HW1 4860   0.063   2.137   4.628  1.4539 -0.1069  0.7691
 1418SOL    HW2 4861   0.176   2.037   4.638  0.9386 -0.8613 -0.7494
 1418SOL     MW 4862   0.108   2.070   4.594  0.3814 -0.6113  0.2990
 1419SOL     OW 4863   2.677   2.860   5.788 -0.6253  0.3033 -0.1252
 1419SOL    HW1 4864   2.764   2.901   5.784 -1.3223  1.7528 -1.0976
 1419SOL    HW2 4865   2.617   2.933   5.797 -1.9087 -0.5048 -1.8669
 1419SOL     MW 4866   2.681   2.875   5.788 -0.8788  0.3853 -0.4721
 1420SOL     OW 4867   4.874   0.981   3.342 -0.1518 -0.0073 -0.1278
 1420SOL    HW1 4868   4.926   1.061   3.336 -0.2136  0.2052  2.0460
 1420SOL    HW2 4869   4.794   1.007   3.388 -1.4057 -0.7361 -1.8135
 1420SOL     MW 4870   4.870   0.995   3.347 -0.3200 -0.0734 -0.0656
 1421SOL     OW 4871   0.723   4.774   4.521  0.0643 -0.1116 -0.6741
 1421SOL    HW1 4872   0.628   4.769   4.531  0.2709 -1.4438  0.7333
 1421SOL    HW2 4873   0.752   4.830   4.592  0.1320  2.2861 -2.5131
 1421SOL     MW 4874   0.715   4.781   4.531  0.0995  0.0243 -0.7296
 1422SOL     OW 4875   1.824   5.162   1.733  0.1170  0.1582  0.1625
 1422SOL    HW1 4876   1.762   5.174   1.806 -2.6338 -0.0474 -2.0367
 1422SOL    HW2 4877   1.905   5.203   1.763 -1.2389  0.9141  2.9572
 1422SOL     MW 4878   1.826   5.169   1.746 -0.4088  0.2289  0.2388
 1423SOL     OW 4879   2.341   4.391   2.395  0.1786 -0.0756 -0.0752
 1423SOL    HW1 4880   2.251   4.391   2.361  0.1100 -0.5268  0.1034
 1423SOL    HW2 4881   2.395   4.367   2.319  0.3299  1.8771 -0.6267
 1423SOL     MW 4882   2.336   4.388   2.381  0.1895  0.1173 -0.1233
 1424SOL     OW 4883   2.313   0.699   1.649  0.0788 -0.3493 -0.0639
 1424SOL    HW1 4884   2.225   0.722   1.680 -0.8027 -2.2163 -1.0854
 1424SOL    HW2 4885   2.366   0.697   1.728 -0.7146  1.1026  0.5382
 1424SOL     MW 4886   2.308   0.702   1.663 -0.1357 -0.4024 -0.1177
 1425SOL     OW 4887   5.782   3.281   4.608  0.7343 -0.1853  0.1124
 1425SOL    HW1 4888   5.790   3.203   4.664 -0.3990 -0.4149 -0.0345
 1425SOL    HW2 4889   5.851   3.271   4.543  1.0267 -0.7302  0.5053
 1425SOL     MW 4890   5.792   3.270   4.607  0.6266 -0.2847  0.1445
 1426SOL     OW 4891   1.202   4.547   4.849  0.2429  0.1092 -0.4715
 1426SOL    HW1 4892   1.269   4.483   4.825 -1.0257 -0.6221 -2.2438
 1426SOL    HW2 4893   1.238   4.631   4.819  0.5206 -0.2276 -1.1057
 1426SOL     MW 4894   1.215   4.549   4.842  0.1161 -0.0281 -0.7796
 1427SOL     OW 4895   2.885   4.394   0.766 -0.8257  0.3004  0.4569
 1427SOL    HW1 4896   2.803   4.382   0.815 -1.2579  0.9006 -0.1040
 1427SOL    HW2 4897   2.895   4.313   0.716 -2.3800  1.1924 -1.3622
 1427SOL     MW 4898   2.876   4.382   0.766 -1.0798  0.4911  0.1522
 1428SOL     OW 4899   2.760   1.251   1.113 -0.1227 -0.6023 -0.0423
 1428SOL    HW1 4900   2.756   1.317   1.183  0.6544 -0.1271 -0.4379
 1428SOL    HW2 4901   2.849   1.259   1.078 -0.9264  0.0642 -1.9570
 1428SOL     MW 4902   2.771   1.260   1.118 -0.1261 -0.4562 -0.3380
 1429SOL     OW 4903   0.529   4.823   2.121  1.0584  0.3255  0.1488
 1429SOL    HW1 4904   0.606   4.772   2.097  0.1736  0.0232 -2.1310
 1429SOL    HW2 4905   0.458   4.759   2.122 -0.0839  1.5036 -2.8485
 1429SOL     MW 4906   0.530   4.808   2.118  0.7988  0.4377 -0.5269
 1430SOL     OW 4907   0.968   1.076   4.084  0.0861 -0.7660 -0.4895
 1430SOL    HW1 4908   0.957   0.993   4.036  0.9249 -1.4508  0.4868
 1430SOL    HW2 4909   0.969   1.050   4.176  1.7660  0.1784 -0.2258
 1430SOL     MW 4910   0.966   1.062   4.089  0.4085 -0.7329 -0.3309
 1431SOL     OW 4911   0.083   1.396   4.730 -0.4915  0.0708 -0.1193
 1431SOL    HW1 4912   0.045   1.386   4.817  3.0866  1.2575  1.6737
 1431SOL    HW2 4913   0.059   1.485   4.703 -0.5457  0.1517  0.1961
 1431SOL     MW 4914   0.075   1.406   4.738 -0.0404  0.2329  0.1507
 1432SOL     OW 4915   5.039   0.461   2.651  0.3329  0.1287 -0.1220
 1432SOL    HW1 4916   5.012   0.428   2.736 -1.4968  3.2371  0.5764
 1432SOL    HW2 4917   4.971   0.431   2.591  0.2146  0.1730 -0.0104
 1432SOL     MW 4918   5.027   0.453   2.654  0.0839  0.5323 -0.0184
 1433SOL     OW 4919   2.914   3.484   4.111  0.5959  0.0109 -0.5038
 1433SOL    HW1 4920   2.832   3.489   4.160  1.0245 -0.7162  0.2976
 1433SOL    HW2 4921   2.905   3.551   4.042 -0.8434 -0.3670 -0.6972
 1433SOL     MW 4922   2.902   3.493   4.108  0.4666 -0.1304 -0.4263
 1434SOL     OW 4923   1.018   0.279   3.374  0.5230  0.1873 -0.0207
 1434SOL    HW1 4924   1.069   0.261   3.452  1.8466 -0.4009 -1.0060
 1434SOL    HW2 4925   0.939   0.324   3.406  1.1139  0.0683  1.6141
 1434SOL     MW 4926   1.014   0.283   3.388  0.7681  0.0968  0.0625
 1435SOL     OW 4927   1.277   5.700   3.324  0.2776  0.0746 -0.0733
 1435SOL    HW1 4928   1.247   5.630   3.266  1.7632 -0.8628  0.2539
 1435SOL    HW2 4929   1.241   5.677   3.409  1.0232 -0.4726  0.0993
 1435SOL     MW 4930   1.268   5.688   3.327  0.5631 -0.1154 -0.0093
 1436SOL     OW 4931   0.937   2.933   5.007  0.0082  0.3279 -0.0549
 1436SOL    HW1 4932   0.863   2.906   4.952  1.4414 -0.2911 -1.7091
 1436SOL    HW2 4933   0.984   2.851   5.024  0.0233  0.6420  1.4380
 1436SOL     MW 4934   0.934   2.919   5.002  0.1937  0.2887 -0.0753
 1437SOL     OW 4935   1.146   5.184   2.610  0.1083  0.3317 -0.0736
 1437SOL    HW1 4936   1.124   5.148   2.524 -0.0464 -0.5050  0.3154
 1437SOL    HW2 4937   1.097   5.130   2.672  0.7005  0.5424  0.5857
 1437SOL     MW 4938   1.136   5.173   2.607  0.1643  0.2518  0.0606
 1438SOL     OW 4939   2.387   3.085   5.259  0.4712  0.1094  0.5350
 1438SOL    HW1 4940   2.429   3.133   5.187 -0.0788  0.8999  0.7303
 1438SOL    HW2 4941   2.436   3.110   5.337  1.7357 -1.5742  0.2919
 1438SOL     MW 4942   2.398   3.095   5.259  0.5629 -0.0048  0.5288
 1439SOL     OW 4943   0.293   4.921   0.059 -0.1233 -0.5651  0.1489
 1439SOL    HW1 4944   0.279   5.012   0.034 -0.1804 -1.0259 -1.5090
 1439SOL    HW2 4945   0.205   4.886   0.074 -0.2029 -0.7895 -0.8104
 1439SOL     MW 4946   0.280   4.928   0.058 -0.1408 -0.6528 -0.1861
 1440SOL     OW 4947   4.566   0.831   1.070  0.1761  0.2736  0.4009
 1440SOL    HW1 4948   4.543   0.820   1.163  1.7673 -0.3970  0.7283
 1440SOL    HW2 4949   4.661   0.837   1.069  0.1190  1.1318 -1.1198
 1440SOL     MW 4950   4.575   0.830   1.082  0.3724  0.2976  0.2483
 1441SOL     OW 4951   3.553   3.708   1.469  0.2960  0.0273  0.3131
 1441SOL    HW1 4952   3.536   3.702   1.375 -1.2899 -1.5543  0.6752
 1441SOL    HW2 4953   3.635   3.660   1.482  1.4709  1.7475 -0.4727
 1441SOL     MW 4954   3.562   3.701   1.459  0.2434  0.0448  0.2588
 1442SOL     OW 4955   1.236   5.566   2.061 -0.3195  0.5214 -0.3295
 1442SOL    HW1 4956   1.293   5.618   2.117 -0.5943  0.4260  0.0388
 1442SOL    HW2 4957   1.184   5.631   2.013  1.6417  0.6931 -2.3343
 1442SOL     MW 4958   1.236   5.581   2.062 -0.1036  0.5317 -0.5388
 1443SOL     OW 4959   5.997   1.974   1.813 -0.5773  0.0856  0.2746
 1443SOL    HW1 4960   5.996   1.906   1.746  3.2323  0.0414  0.1681
 1443SOL    HW2 4961   6.030   2.051   1.768 -0.2115  0.6896  1.5591
 1443SOL     MW 4962   6.001   1.975   1.798 -0.0424  0.1571  0.4253
 1444SOL     OW 4963   1.007   1.317   3.539 -0.0021 -0.0459  0.3025
 1444SOL    HW1 4964   1.065   1.312   3.463  0.8934 -1.5766  1.0515
 1444SOL    HW2 4965   0.941   1.249   3.523 -0.4302  0.3553  0.3799
 1444SOL     MW 4966   1.006   1.307   3.527  0.0577 -0.1905  0.4084
 1445SOL     OW 4967   0.817   4.171   2.547  0.2905 -0.3124 -0.4345
 1445SOL    HW1 4968   0.769   4.168   2.464 -0.4844  0.1701 -0.0090
 1445SOL    HW2 4969   0.903   4.134   2.526  0.2682  0.2471 -1.5628
 1445SOL     MW 4970   0.822   4.166   2.534  0.1885 -0.1793 -0.5243
 1446SOL     OW 4971   2.711   3.044   4.148  0.0069 -0.3603 -0.1470
 1446SOL    HW1 4972   2.658   3.072   4.073 -0.1964  1.8597  0.7969
 1446SOL    HW2 4973   2.800   3.072   4.126 -0.2370  1.3108  0.9004
 1446SOL     MW 4974   2.715   3.051   4.135 -0.0505  0.1378  0.1082
 1447SOL     OW 4975   1.407   1.344   2.997 -0.5699  0.2885  0.5440
 1447SOL    HW1 4976   1.319   1.364   2.965 -0.9948  0.1729  1.6101
 1447SOL    HW2 4977   1.398   1.341   3.092  0.2339 -1.3192  0.6019
 1447SOL     MW 4978   1.394   1.346   3.005 -0.5214  0.0679  0.6881
 1448SOL     OW 4979   4.566   5.766   3.499 -0.4787 -0.1602 -0.2963
 1448SOL    HW1 4980   4.564   5.778   3.594  0.1453 -1.1876 -0.1489
 1448SOL    HW2 4981   4.482   5.724   3.478 -0.5153 -0.1493 -0.1693
 1448SOL     MW 4982   4.555   5.762   3.508 -0.4039 -0.2904 -0.2613
 1449SOL     OW 4983   3.667   3.880   2.978  0.4335 -0.3302  0.1525
 1449SOL    HW1 4984   3.633   3.959   3.020 -0.6650 -1.3215  1.1791
 1449SOL    HW2 4985   3.647   3.891   2.885  1.1586  1.0318  0.1530
 1449SOL     MW 4986   3.660   3.891   2.972  0.3860 -0.2830  0.2840
 1450SOL     OW 4987   3.397   4.859   0.882 -0.3316  0.4279 -0.5436
 1450SOL    HW1 4988   3.408   4.952   0.866 -1.6441  0.9053  1.1542
 1450SOL    HW2 4989   3.427   4.845   0.972  0.9691 -1.0168 -1.1713
 1450SOL     MW 4990   3.402   4.869   0.892 -0.3333  0.3037 -0.4066
 1451SOL     OW 4991   2.949   0.012   0.486 -0.5838  0.3587 -0.1752
 1451SOL    HW1 4992   3.024   0.032   0.430 -0.3661  0.2318  0.0719
 1451SOL    HW2 4993   2.929   0.095   0.529  0.4571  0.0078  1.0158
 1451SOL     MW 4994   2.956   0.025   0.485 -0.4225  0.2975  0.0089
 1452SOL     OW 4995   2.546   2.366   0.580  0.4781 -0.3415 -0.8782
 1452SOL    HW1 4996   2.584   2.378   0.667 -1.0373  0.6796 -0.3400
 1452SOL    HW2 4997   2.542   2.454   0.543 -2.6482 -0.2230 -0.3513
 1452SOL     MW 4998   2.551   2.378   0.587 -0.1161 -0.1957 -0.7419
 1453SOL     OW 4999   1.144   2.737   5.082  0.0386  0.3548 -0.2686
 1453SOL    HW1 5000   1.148   2.644   5.105 -1.0601  0.2308 -0.5551
 1453SOL    HW2 5001   1.163   2.783   5.164 -0.7202 -0.1144  0.1797
 1453SOL     MW 5002   1.147   2.731   5.096 -0.1992  0.2789 -0.2480
 1454SOL     OW 5003   0.617   3.315   0.309  0.4899  0.5033  0.2569
 1454SOL    HW1 5004   0.598   3.359   0.392  2.8516  0.7971  0.6740
 1454SOL    HW2 5005   0.701   3.272   0.323  0.1505 -0.7779 -1.4787
 1454SOL     MW 5006   0.625   3.315   0.322  0.7488  0.3772  0.0881
 1455SOL     OW 5007   4.066   4.022   5.093  0.3147  0.0930 -0.0973
 1455SOL    HW1 5008   4.137   3.960   5.108 -0.6523 -1.0332 -0.0906
 1455SOL    HW2 5009   4.091   4.069   5.014 -0.1592 -2.1003 -1.5818
 1455SOL     MW 5010   4.078   4.020   5.085  0.1302 -0.3324 -0.2861
 1456SOL     OW 5011   4.651   1.964   4.097  1.2418 -0.3182  0.0262
 1456SOL    HW1 5012   4.655   2.039   4.038 -1.5252 -1.0773 -1.2439
 1456SOL    HW2 5013   4.561   1.932   4.088  2.2132 -3.4613  0.9200
 1456SOL     MW 5014   4.640   1.969   4.088  1.0123 -0.8177 -0.0215
 1457SOL     OW 5015   2.761   4.477   2.830  0.4833  0.0189 -0.0186
 1457SOL    HW1 5016   2.667   4.497   2.822  0.9189  1.7474 -1.0300
 1457SOL    HW2 5017   2.790   4.528   2.905  1.2102  1.8562 -1.4947
 1457SOL     MW 5018   2.752   4.486   2.838  0.6320  0.4754 -0.3371
 1458SOL     OW 5019   3.444   2.210   2.649  0.4101 -1.0164  0.1908
 1458SOL    HW1 5020   3.413   2.132   2.602 -0.5114 -0.8067  0.4580
 1458SOL    HW2 5021   3.397   2.209   2.732  1.9292 -1.2995  1.0684
 1458SOL     MW 5022   3.434   2.200   2.653  0.4866 -1.0259  0.3376
 1459SOL     OW 5023   1.112   4.682   3.825 -0.3814  0.2373 -0.4876
 1459SOL    HW1 5024   1.176   4.736   3.780  0.1850 -0.3666 -0.4238
 1459SOL    HW2 5025   1.147   4.593   3.819 -1.9078 -0.3071 -1.6662
 1459SOL     MW 5026   1.125   4.677   3.819 -0.5044  0.0906 -0.6304
 1460SOL     OW 5027   1.674   0.734   4.715 -0.0324 -0.3402  0.1174
 1460SOL    HW1 5028   1.685   0.669   4.645 -1.0606 -0.9246  0.4902
 1460SOL    HW2 5029   1.673   0.682   4.796  1.3479  0.3471  0.5932
 1460SOL     MW 5030   1.675   0.719   4.717  0.0126 -0.3270  0.2260
 1461SOL     OW 5031   0.454   1.809   4.521  0.3052 -0.0484  0.6006
 1461SOL    HW1 5032   0.515   1.767   4.582 -2.0426 -1.5362  2.0442
 1461SOL    HW2 5033   0.414   1.880   4.572 -0.6379 -0.3980  0.3604
 1461SOL     MW 5034   0.457   1.812   4.536 -0.1161 -0.2837  0.7548
 1462SOL     OW 5035   0.433   0.119   2.445  0.0106 -0.2337  0.0222
 1462SOL    HW1 5036   0.508   0.136   2.502  0.1884  0.8591 -0.5343
 1462SOL    HW2 5037   0.440   0.026   2.424 -0.3871 -0.8129  2.2520
 1462SOL     MW 5038   0.443   0.109   2.450 -0.0176 -0.1680  0.2365
 1463SOL     OW 5039   0.061   2.333   3.819 -0.5531 -0.0640  0.3113
 1463SOL    HW1 5040  -0.000   2.394   3.778 -0.9684 -2.1988 -2.3633
 1463SOL    HW2 5041   0.146   2.376   3.812 -0.6273 -0.2608 -2.7790
 1463SOL     MW 5042   0.064   2.346   3.813 -0.6157 -0.3624 -0.4268
 1464SOL     OW 5043   0.385   2.033   3.029 -0.5496  0.4617 -0.3401
 1464SOL    HW1 5044   0.311   1.996   3.078  1.7891 -1.0663  2.2360
 1464SOL    HW2 5045   0.432   2.086   3.094  1.7791 -0.3217 -1.3300
 1464SOL     MW 5046   0.381   2.035   3.044  0.0479  0.1657 -0.1371
 1465SOL     OW 5047   4.915   0.026   5.822 -0.4202 -0.5877  0.3118
 1465SOL    HW1 5048   5.003   0.046   5.855 -1.5726  1.1310  2.4946
 1465SOL    HW2 5049   4.910  -0.069   5.822  0.9806 -0.6841  1.4944
 1465SOL     MW 5050   4.926   0.016   5.826 -0.3881 -0.3800  0.7424
 1466SOL     OW 5051   4.908   3.870   3.037  0.2941  0.1651 -0.0237
 1466SOL    HW1 5052   4.823   3.906   3.010 -0.4949 -1.0900  0.7374
 1466SOL    HW2 5053   4.952   3.849   2.954  0.0070  1.1512 -0.4322
 1466SOL     MW 5054   4.902   3.872   3.023  0.1569  0.1307  0.0215
 1467SOL     OW 5055   4.748   1.525   5.158  0.0599  1.0036 -0.1058
 1467SOL    HW1 5056   4.767   1.475   5.079  0.0815  1.1380 -0.1881
 1467SOL    HW2 5057   4.653   1.529   5.162  0.0232 -0.5037  0.8352
 1467SOL     MW 5058   4.739   1.519   5.148  0.0577  0.8279  0.0038
 1468SOL     OW 5059   1.107   4.025   5.142 -0.4182 -0.1648 -0.6219
 1468SOL    HW1 5060   1.192   4.023   5.187 -0.1343  1.0836 -1.1022
 1468SOL    HW2 5061   1.118   3.964   5.069  0.2404  0.3921 -0.9946
 1468SOL     MW 5062   1.120   4.017   5.139 -0.2975  0.0668 -0.7310
 1469SOL     OW 5063   1.800   0.713   1.640  0.8469 -0.2365 -0.3878
 1469SOL    HW1 5064   1.823   0.757   1.558  0.9306 -0.3490 -0.4247
 1469SOL    HW2 5065   1.800   0.620   1.618  3.1476 -0.4223  0.3014
 1469SOL     MW 5066   1.803   0.707   1.627  1.1523 -0.2747 -0.3043
 1470SOL     OW 5067   1.598   5.942   4.068  0.6672  0.0586 -0.5648
 1470SOL    HW1 5068   1.633   5.900   3.989  1.9875 -1.3805  0.7560
 1470SOL    HW2 5069   1.503   5.933   4.060  0.8449 -1.2462 -1.3797
 1470SOL     MW 5070   1.590   5.935   4.057  0.8590 -0.2923 -0.5007
 1471SOL     OW 5071   1.674   4.982   2.303 -0.5823 -0.1165 -0.4082
 1471SOL    HW1 5072   1.617   5.028   2.365  0.0054 -0.8938  0.7232
 1471SOL    HW2 5073   1.618   4.919   2.260 -0.8300 -0.1058 -0.1022
 1471SOL     MW 5074   1.660   4.980   2.306 -0.5388 -0.2146 -0.2239
 1472SOL     OW 5075   1.872   5.387   3.272 -0.0019  0.1126  0.4615
 1472SOL    HW1 5076   1.843   5.296   3.260 -1.1868  0.3566  1.3783
 1472SOL    HW2 5077   1.932   5.403   3.199 -0.1144 -1.2683  0.0527
 1472SOL     MW 5078   1.876   5.377   3.261 -0.1681 -0.0334  0.5264
 1473SOL     OW 5079   3.269   3.875   0.206 -0.4863  0.5855  0.1761
 1473SOL    HW1 5080   3.175   3.872   0.187 -0.3201  0.2189 -0.6131
 1473SOL    HW2 5081   3.309   3.902   0.124  0.3226 -1.8389 -0.2791
 1473SOL     MW 5082   3.262   3.878   0.193 -0.3614  0.2282  0.0167
 1474SOL     OW 5083   3.841   4.173   0.767  0.2387  0.5218  0.0508
 1474SOL    HW1 5084   3.755   4.142   0.740  0.0778 -0.1194  1.2636
 1474SOL    HW2 5085   3.888   4.190   0.685 -0.3011 -1.1620 -0.6173
 1474SOL     MW 5086   3.836   4.171   0.753  0.1490  0.2246  0.1206
 1475SOL     OW 5087   4.762   5.410   0.084  0.2047 -0.3126  0.1513
 1475SOL    HW1 5088   4.718   5.493   0.069 -3.5709 -2.2757 -0.2636
 1475SOL    HW2 5089   4.809   5.422   0.166 -0.1030  2.2740 -0.0180
 1475SOL     MW 5090   4.763   5.422   0.092 -0.3181 -0.2327  0.0765
 1476SOL     OW 5091   1.591   2.820   5.219 -0.5026 -0.6206 -0.2276
 1476SOL    HW1 5092   1.600   2.811   5.314  0.4284  0.3168 -0.2126
 1476SOL    HW2 5093   1.559   2.909   5.206 -0.5671 -0.7258 -0.7951
 1476SOL     MW 5094   1.588   2.830   5.230 -0.3916 -0.5143 -0.2985
 1477SOL     OW 5095   1.209   0.178   4.697  0.6158 -0.5647 -0.5991
 1477SOL    HW1 5096   1.189   0.183   4.791  1.8129 -1.1259 -0.3090
 1477SOL    HW2 5097   1.147   0.114   4.663 -0.9743  0.9040 -0.5183
 1477SOL     MW 5098   1.198   0.170   4.705  0.5655 -0.4485 -0.5517
 1478SOL     OW 5099   1.237   3.353   1.902 -0.4474  0.6436 -0.1418
 1478SOL    HW1 5100   1.295   3.411   1.854 -1.0607  1.1506 -0.2766
 1478SOL    HW2 5101   1.275   3.347   1.990 -1.2291  2.4939  0.3478
 1478SOL     MW 5102   1.249   3.359   1.907 -0.6260  0.9453 -0.0964
 1479SOL     OW 5103   5.648   0.829   2.989 -0.0488  0.0945 -0.5435
 1479SOL    HW1 5104   5.667   0.846   2.896  4.5248  2.1664  0.6217
 1479SOL    HW2 5105   5.721   0.775   3.018 -0.3851  1.1469  2.3437
 1479SOL     MW 5106   5.660   0.824   2.981  0.4935  0.4945 -0.0246
 1480SOL     OW 5107   1.275   1.508   4.375 -0.6253  0.1580  0.0365
 1480SOL    HW1 5108   1.243   1.423   4.348 -1.6903  0.1371  1.2995
 1480SOL    HW2 5109   1.339   1.533   4.308  0.5378 -2.1169  0.2468
 1480SOL     MW 5110   1.279   1.501   4.363 -0.6127 -0.1360  0.2251
 1481SOL     OW 5111   2.440   4.439   4.722 -0.1746 -0.5021 -0.6399
 1481SOL    HW1 5112   2.448   4.522   4.675 -0.3597 -1.1166 -1.7704
 1481SOL    HW2 5113   2.357   4.446   4.769 -1.5323 -1.0997 -2.8668
 1481SOL     MW 5114   2.431   4.451   4.722 -0.3719 -0.6571 -1.0695
 1482SOL     OW 5115   3.980   0.909   0.276  0.7320 -0.6010 -0.3640
 1482SOL    HW1 5116   3.975   0.897   0.371  2.5483  0.0820 -0.1620
 1482SOL    HW2 5117   3.921   0.842   0.241 -0.1754 -0.6844  1.2400
 1482SOL     MW 5118   3.972   0.899   0.284  0.8488 -0.5242 -0.1328
 1483SOL     OW 5119   4.094   0.446   2.863 -0.0594 -0.2559 -0.4426
 1483SOL    HW1 5120   4.083   0.486   2.777  0.7972 -1.5634 -1.1861
 1483SOL    HW2 5121   4.030   0.375   2.865  1.6746 -1.8838 -1.0587
 1483SOL     MW 5122   4.085   0.442   2.852  0.2728 -0.6317 -0.6168
 1484SOL     OW 5123   4.628   2.847   2.462 -0.8474 -0.3517 -0.2093
 1484SOL    HW1 5124   4.710   2.877   2.502  1.2015 -2.3958 -2.7340
 1484SOL    HW2 5125   4.598   2.922   2.411 -1.2237  0.8039  1.6421
 1484SOL     MW 5126   4.635   2.861   2.461 -0.6332 -0.4654 -0.2956
 1485SOL     OW 5127   0.667   5.678   2.426 -0.6039 -0.0875  0.3042
 1485SOL    HW1 5128   0.618   5.725   2.493  0.3137  0.1271  0.8348
 1485SOL    HW2 5129   0.684   5.743   2.358 -0.4773  0.0151  0.4332
 1485SOL     MW 5130   0.663   5.692   2.426 -0.4702 -0.0472  0.3886
 1486SOL     OW 5131   5.131   4.859   1.895  0.0220  0.4257 -0.1964
 1486SOL    HW1 5132   5.058   4.864   1.833  0.0410 -0.3450 -0.2784
 1486SOL    HW2 5133   5.099   4.904   1.973 -0.8140 -0.5808  0.0382
 1486SOL     MW 5134   5.118   4.866   1.897 -0.0830  0.1984 -0.1768
 1487SOL     OW 5135   4.143   0.690   1.507  0.1234  0.2526 -0.4270
 1487SOL    HW1 5136   4.119   0.674   1.598  1.0270 -0.8199 -0.3661
 1487SOL    HW2 5137   4.129   0.784   1.495  1.7357  0.7639  1.3673
 1487SOL     MW 5138   4.138   0.700   1.517  0.4449  0.1808 -0.1894
 1488SOL     OW 5139   2.577   3.616   5.087 -0.7119  0.5370 -0.3889
 1488SOL    HW1 5140   2.571   3.605   5.182 -2.5508  4.2688  0.0294
 1488SOL    HW2 5141   2.671   3.626   5.071 -0.5240  2.0802  1.3958
 1488SOL     MW 5142   2.589   3.616   5.097 -0.9232  1.2126 -0.1073
 1489SOL     OW 5143   1.138   0.035   1.000  0.5290 -0.1119  0.8793
 1489SOL    HW1 5144   1.061   0.084   0.969  1.6448 -0.3313 -2.4088
 1489SOL    HW2 5145   1.118  -0.056   0.980  2.0126 -0.0721 -0.9059
 1489SOL     MW 5146   1.125   0.030   0.993  0.8618 -0.1349  0.2298
 1490SOL     OW 5147   4.499   0.135   0.462 -0.1701 -0.2486 -0.3258
 1490SOL    HW1 5148   4.517   0.206   0.524  0.1509  0.9164 -1.7369
 1490SOL    HW2 5149   4.407   0.145   0.440 -0.1051 -0.2105 -0.5873
 1490SOL     MW 5150   4.490   0.145   0.467 -0.1206 -0.0946 -0.5399
 1491SOL     OW 5151   4.031   4.203   2.576 -0.2860 -0.7584  0.5182
 1491SOL    HW1 5152   4.050   4.212   2.670  1.1316  1.8645  0.0297
 1491SOL    HW2 5153   4.026   4.294   2.544 -0.0280 -1.6239 -2.0808
 1491SOL     MW 5154   4.033   4.216   2.584 -0.0715 -0.5336  0.1228
 1492SOL     OW 5155   1.865   2.059   4.598 -0.4811 -0.3118 -0.3942
 1492SOL    HW1 5156   1.808   1.983   4.609  0.6651 -1.4180 -1.9087
 1492SOL    HW2 5157   1.853   2.084   4.506  0.6840  0.0964 -0.4379
 1492SOL     MW 5158   1.856   2.053   4.587 -0.1853 -0.4010 -0.5932
 1493SOL     OW 5159   5.075   0.526   3.732  0.0963  0.6017  0.1466
 1493SOL    HW1 5160   5.153   0.528   3.677  1.6775  0.6245  2.2776
 1493SOL    HW2 5161   5.081   0.442   3.779  0.1281  1.6322  2.0500
 1493SOL     MW 5162   5.086   0.515   3.731  0.3028  0.7365  0.6630
 1494SOL     OW 5163   5.763   5.441   5.020  0.6093  0.7795 -0.0610
 1494SOL    HW1 5164   5.697   5.467   4.957  1.3432  1.5504 -0.5150
 1494SOL    HW2 5165   5.756   5.506   5.090 -0.8000 -0.5689  1.0973
 1494SOL     MW 5166   5.754   5.453   5.021  0.5231  0.7052  0.0296
 1495SOL     OW 5167   5.211   1.870   4.376 -0.3874 -0.0905 -0.5395
 1495SOL    HW1 5168   5.169   1.826   4.302 -0.7031  0.2609 -0.5716
 1495SOL    HW2 5169   5.221   1.961   4.346 -0.0129 -0.0733 -0.3616
 1495SOL     MW 5170   5.207   1.876   4.362 -0.3800 -0.0433 -0.5212
 1496SOL     OW 5171   5.206   4.724   4.701 -0.3148 -0.5397 -1.0219
 1496SOL    HW1 5172   5.266   4.798   4.698  0.7602 -1.1602  2.6210
 1496SOL    HW2 5173   5.223   4.676   4.620  1.0784  1.5810 -2.0315
 1496SOL     MW 5174   5.216   4.727   4.690  0.0010 -0.3476 -0.6847
 1497SOL     OW 5175   0.183   4.204   0.428  0.0677 -0.7454  0.8008
 1497SOL    HW1 5176   0.200   4.298   0.426  0.1803 -0.7783 -1.2390
 1497SOL    HW2 5177   0.106   4.194   0.483 -0.3484  0.6104  0.4835
 1497SOL     MW 5178   0.175   4.215   0.435  0.0288 -0.5760  0.4990
 1498SOL     OW 5179   5.412   1.899   1.907  0.5724  0.0451  0.5322
 1498SOL    HW1 5180   5.380   1.814   1.878  3.1588 -1.2959  1.4313
 1498SOL    HW2 5181   5.446   1.882   1.995  0.3672  2.1972  1.0417
 1498SOL     MW 5182   5.413   1.886   1.915  0.8774  0.1490  0.7125
 1499SOL     OW 5183   2.981   1.349   1.891  0.1639  0.4488 -0.2547
 1499SOL    HW1 5184   3.019   1.419   1.943  0.1524  0.0436  0.3103
 1499SOL    HW2 5185   2.968   1.277   1.954 -1.0047  0.3852 -0.5471
 1499SOL     MW 5186   2.984   1.348   1.906  0.0129  0.3889 -0.2198
 1500SOL     OW 5187   0.452   2.204   5.782 -0.3868  0.2527 -0.1899
 1500SOL    HW1 5188   0.449   2.300   5.782  0.4449  0.2815  0.1011
 1500SOL    HW2 5189   0.377   2.177   5.835 -0.7694  0.7346 -0.4767
 1500SOL     MW 5190   0.442   2.213   5.788 -0.3293  0.3183 -0.1893
 1501SOL     OW 5191   0.271   1.103   5.835  0.2907  0.3729  0.4719
 1501SOL    HW1 5192   0.251   1.170   5.769  0.7478  2.4382  2.3831
 1501SOL    HW2 5193   0.208   1.119   5.906  0.3795 -1.2618  0.9389
 1501SOL     MW 5194   0.260   1.114   5.836  0.3606  0.4280  0.7758
 1502SOL     OW 5195   3.083   2.901   0.657 -0.6758 -0.1374  0.1845
 1502SOL    HW1 5196   3.100   2.990   0.688  1.3475 -1.4418  3.0802
 1502SOL    HW2 5197   3.036   2.860   0.729 -2.2163 -1.2756 -1.4144
 1502SOL     MW 5198   3.079   2.907   0.670 -0.6139 -0.4501  0.3505
 1503SOL     OW 5199   4.882   2.869   3.234  0.0516  0.2947  0.7706
 1503SOL    HW1 5200   4.862   2.939   3.172 -0.9276 -0.8873 -0.2586
 1503SOL    HW2 5201   4.942   2.811   3.188 -1.1738 -0.9226  0.6802
 1503SOL     MW 5202   4.887   2.871   3.220 -0.2308 -0.0124  0.6273
 1504SOL     OW 5203   0.505   0.902   5.665  0.4973  0.1776  0.6052
 1504SOL    HW1 5204   0.490   0.996   5.651  1.0007  0.0284 -1.0415
 1504SOL    HW2 5205   0.562   0.898   5.742  0.3432  1.2138  0.7809
 1504SOL     MW 5206   0.510   0.914   5.673  0.5420  0.2912  0.4168
 1505SOL     OW 5207   1.793   1.778   3.223  0.0102 -0.2250  0.2691
 1505SOL    HW1 5208   1.798   1.814   3.312 -0.4692  1.2030 -0.2574
 1505SOL    HW2 5209   1.881   1.791   3.188  0.0868 -0.4016  0.3969
 1505SOL     MW 5210   1.805   1.784   3.230 -0.0415 -0.0648  0.2184
 1506SOL     OW 5211   0.347   0.779   2.283 -0.1035 -0.5850  0.5335
 1506SOL    HW1 5212   0.364   0.862   2.328  0.8738 -0.0503 -0.7842
 1506SOL    HW2 5213   0.280   0.800   2.218  0.1037 -0.8322  0.2371
 1506SOL     MW 5214   0.341   0.792   2.280  0.0481 -0.5482  0.3269
 1507SOL     OW 5215   0.603   0.541   4.067  0.6757 -0.2857  0.6094
 1507SOL    HW1 5216   0.609   0.487   3.989 -1.9842  0.8726 -0.4495
 1507SOL    HW2 5217   0.557   0.486   4.131 -1.3045  0.3915 -0.2005
 1507SOL     MW 5218   0.598   0.527   4.065  0.0817 -0.0508  0.3700
 1508SOL     OW 5219   5.858   3.445   1.113  0.0892  0.4274  0.3231
 1508SOL    HW1 5220   5.854   3.498   1.033 -2.3342  1.4051  1.0464
 1508SOL    HW2 5221   5.859   3.355   1.083 -0.1528  0.8054 -0.8237
 1508SOL     MW 5222   5.858   3.440   1.099 -0.2518  0.6011  0.2689
 1509SOL     OW 5223   1.072   1.537   2.413 -0.2868 -0.4376  0.6260
 1509SOL    HW1 5224   1.085   1.489   2.495 -0.3880 -1.9771 -0.2459
 1509SOL    HW2 5225   0.979   1.557   2.411  0.1543  2.1149  2.2216
 1509SOL     MW 5226   1.062   1.533   2.423 -0.2432 -0.3078  0.7186
 1510SOL     OW 5227   4.550   3.312   1.209  0.0170 -0.4402  0.1210
 1510SOL    HW1 5228   4.559   3.393   1.259 -2.3670  1.6491 -2.7098
 1510SOL    HW2 5229   4.625   3.312   1.150 -0.7605  0.4753 -0.8846
 1510SOL     MW 5230   4.561   3.322   1.208 -0.3877 -0.0553 -0.3700
 1511SOL     OW 5231   3.187   2.346   3.780  0.6572 -0.4647  1.0443
 1511SOL    HW1 5232   3.199   2.262   3.734  1.8614  0.3012 -0.0889
 1511SOL    HW2 5233   3.242   2.338   3.858  1.6385 -0.3299  0.3771
 1511SOL     MW 5234   3.196   2.334   3.784  0.9370 -0.3495  0.8140
 1512SOL     OW 5235   5.678   4.794   4.143  0.4184  0.1264  0.2422
 1512SOL    HW1 5236   5.623   4.865   4.110  0.0467 -0.5908 -0.7204
 1512SOL    HW2 5237   5.756   4.837   4.177 -0.0704  1.0367  0.2189
 1512SOL     MW 5238   5.681   4.808   4.143  0.3080  0.1512  0.1159
 1513SOL     OW 5239   3.000   5.045   0.971  0.6859 -0.4663 -0.3679
 1513SOL    HW1 5240   2.988   5.098   1.050  1.9299 -0.6053 -0.0756
 1513SOL    HW2 5241   3.026   4.959   1.004 -0.4763 -1.0251 -0.8743
 1513SOL     MW 5242   3.002   5.041   0.986  0.6962 -0.5560 -0.3954
 1514SOL     OW 5243   4.863   4.321   2.173 -0.7139 -0.2644  1.1853
 1514SOL    HW1 5244   4.950   4.328   2.211 -0.7968 -1.5450  1.6439
 1514SOL    HW2 5245   4.861   4.235   2.133 -1.5583  0.0028  0.6382
 1514SOL     MW 5246   4.874   4.311   2.173 -0.8330 -0.3943  1.1740
 1515SOL     OW 5247   5.760   2.110   1.695  0.5411  0.4297  0.2948
 1515SOL    HW1 5248   5.795   2.149   1.615  1.2564  1.3916  1.0511
 1515SOL    HW2 5249   5.728   2.185   1.746  1.0904 -0.0624  1.3838
 1515SOL     MW 5250   5.760   2.125   1.692  0.7029  0.4897  0.5310
 1516SOL     OW 5251   2.267   0.248   0.668 -0.0346  0.7638  0.1331
 1516SOL    HW1 5252   2.226   0.172   0.708 -1.6060  1.4097 -0.2154
 1516SOL    HW2 5253   2.348   0.260   0.717  1.1621 -2.2264 -1.0101
 1516SOL     MW 5254   2.272   0.240   0.679 -0.0825  0.4637 -0.0578
 1517SOL     OW 5255   4.647   1.773   3.872 -0.0830  0.2126  0.1815
 1517SOL    HW1 5256   4.670   1.866   3.871  0.1952  0.1480  0.3820
 1517SOL    HW2 5257   4.723   1.730   3.833  0.9040 -0.1671  2.4442
 1517SOL     MW 5258   4.660   1.779   3.867  0.0787  0.1557  0.4966
 1518SOL     OW 5259   2.327   3.794   3.368  0.3797  0.0154 -0.0818
 1518SOL    HW1 5260   2.417   3.791   3.335  0.4004  0.7722 -0.0838
 1518SOL    HW2 5261   2.315   3.709   3.410  1.2053  0.0468  0.2233
 1518SOL     MW 5262   2.337   3.782   3.369  0.4880  0.1161 -0.0429
 1519SOL     OW 5263   4.018   3.290   3.651  0.1063  0.5757  0.2212
 1519SOL    HW1 5264   4.012   3.325   3.740  0.5136  0.3240  0.3483
 1519SOL    HW2 5265   3.951   3.222   3.649 -0.8301  1.4978 -0.0933
 1519SOL     MW 5266   4.008   3.285   3.662  0.0391  0.6614  0.1974
 1520SOL     OW 5267   0.236   3.240   4.334  0.1367 -0.6068  0.0557
 1520SOL    HW1 5268   0.226   3.147   4.357 -1.7378 -0.5586 -0.5197
 1520SOL    HW2 5269   0.283   3.239   4.251  0.7944 -1.0130  0.4290
 1520SOL     MW 5270   0.241   3.228   4.327 -0.0191 -0.6526  0.0296
 1521SOL     OW 5271   0.708   0.908   4.840 -0.3975 -0.4642  0.3142
 1521SOL    HW1 5272   0.671   0.826   4.808 -0.2471 -0.3170 -0.2412
 1521SOL    HW2 5273   0.632   0.960   4.868 -0.4203 -1.2116  1.6825
 1521SOL     MW 5274   0.694   0.904   4.839 -0.3812 -0.5410  0.4182
 1522SOL     OW 5275   5.086   0.787   1.067 -0.3214  0.3419  0.2257
 1522SOL    HW1 5276   5.165   0.757   1.114 -0.0688 -0.1820 -0.5201
 1522SOL    HW2 5277   5.120   0.833   0.991 -0.7336 -1.3215 -0.9914
 1522SOL     MW 5278   5.101   0.789   1.063 -0.3419  0.0619 -0.0255
 1523SOL     OW 5279   0.765   4.602   4.285  0.2821 -0.0061  0.3535
 1523SOL    HW1 5280   0.737   4.692   4.265  1.1930  0.4280  1.0088
 1523SOL    HW2 5281   0.850   4.594   4.243 -0.4846 -1.1020 -1.0613
 1523SOL     MW 5282   0.772   4.613   4.277  0.3006 -0.0911  0.2565
 1524SOL     OW 5283   1.040   4.523   4.226 -0.7551  0.2371  0.1640
 1524SOL    HW1 5284   1.040   4.617   4.206 -0.3344  0.0860 -0.5834
 1524SOL    HW2 5285   1.124   4.492   4.190 -0.0192 -0.0625  2.0968
 1524SOL     MW 5286   1.051   4.531   4.219 -0.6071  0.1798  0.3161
 1525SOL     OW 5287   1.568   5.296   3.794 -0.2156  0.0853 -0.0858
 1525SOL    HW1 5288   1.663   5.305   3.798 -0.1378 -0.8746  0.5172
 1525SOL    HW2 5289   1.542   5.280   3.885 -0.9781  0.6000 -0.2119
 1525SOL     MW 5290   1.577   5.295   3.806 -0.3033  0.0281 -0.0248
 1526SOL     OW 5291   0.905   0.845   2.218 -0.0595  0.5539 -0.4964
 1526SOL    HW1 5292   0.965   0.779   2.252 -0.0258 -0.2453 -2.0265
 1526SOL    HW2 5293   0.917   0.840   2.123 -0.1797  2.6578 -0.6420
 1526SOL     MW 5294   0.914   0.836   2.210 -0.0706  0.7209 -0.7112
 1527SOL     OW 5295   2.131   5.913   0.530  0.3976 -0.4644 -0.2209
 1527SOL    HW1 5296   2.091   5.944   0.611  2.5942  0.4126  0.5755
 1527SOL    HW2 5297   2.119   5.818   0.532  1.4602 -0.5836  1.7369
 1527SOL     MW 5298   2.125   5.904   0.541  0.8149 -0.3672  0.1317
 1528SOL     OW 5299   1.061   5.289   5.589  0.4661 -0.0263  0.1481
 1528SOL    HW1 5300   1.090   5.312   5.678 -0.4379 -0.6494  0.6215
 1528SOL    HW2 5301   1.111   5.347   5.532 -1.3723  2.7985  1.2604
 1528SOL     MW 5302   1.071   5.299   5.593  0.1150  0.2561  0.3510
 1529SOL     OW 5303   1.009   2.924   1.513 -0.3430  0.1350 -0.1193
 1529SOL    HW1 5304   1.016   2.909   1.607  1.9216 -0.9023 -0.3954
 1529SOL    HW2 5305   0.918   2.947   1.498 -0.7779  0.0862  2.2942
 1529SOL     MW 5306   0.998   2.925   1.523 -0.1088 -0.0041  0.1544
 1530SOL     OW 5307   3.315   0.326   5.495  0.3604 -0.4606 -0.0068
 1530SOL    HW1 5308   3.347   0.235   5.496  1.0420 -0.2291 -0.5558
 1530SOL    HW2 5309   3.273   0.337   5.580 -0.7690 -1.6650 -0.3931
 1530SOL     MW 5310   3.314   0.316   5.506  0.3030 -0.5852 -0.1264
 1531SOL     OW 5311   2.996   1.491   4.810 -0.3243  0.1400  0.2712
 1531SOL    HW1 5312   2.981   1.500   4.904 -2.2731  0.5629 -0.0561
 1531SOL    HW2 5313   2.910   1.474   4.773 -0.1634  3.3640 -1.8141
 1531SOL     MW 5314   2.983   1.490   4.818 -0.5534  0.6069 -0.0377
 1532SOL     OW 5315   2.660   4.097   2.777 -0.1830  1.1726  0.0641
 1532SOL    HW1 5316   2.593   4.083   2.710  0.7029 -0.8690 -0.4466
 1532SOL    HW2 5317   2.612   4.091   2.860 -0.8537  1.0745 -0.3226
 1532SOL     MW 5318   2.645   4.094   2.779 -0.1557  0.8988 -0.0508
 1533SOL     OW 5319   0.393   0.114   1.520  0.0410 -0.1459 -1.1585
 1533SOL    HW1 5320   0.357   0.152   1.600  0.9128 -0.9766 -0.3616
 1533SOL    HW2 5321   0.451   0.045   1.550  1.0563  0.1026 -2.4939
 1533SOL     MW 5322   0.395   0.110   1.534  0.2826 -0.2205 -1.2275
 1534SOL     OW 5323   4.328   4.559   0.830 -0.2360 -0.6390  0.0519
 1534SOL    HW1 5324   4.306   4.651   0.847  2.4595 -0.1896  1.4523
 1534SOL    HW2 5325   4.257   4.509   0.870 -2.4214  0.8176 -1.8606
 1534SOL     MW 5326   4.316   4.565   0.837 -0.1707 -0.3948 -0.0136
 1535SOL     OW 5327   3.166   4.864   4.914 -0.2263  0.2258 -0.4124
 1535SOL    HW1 5328   3.079   4.842   4.946  0.3255 -0.1897  0.8227
 1535SOL    HW2 5329   3.167   4.960   4.909  0.0208  0.3560  1.8138
 1535SOL     MW 5330   3.155   4.874   4.917 -0.1240  0.1888  0.0305
 1536SOL     OW 5331   4.985   5.694   4.091  0.2477 -0.0719  0.5128
 1536SOL    HW1 5332   4.953   5.642   4.018 -0.8405  0.6140  0.4824
 1536SOL    HW2 5333   4.907   5.740   4.123  1.1791  1.5152  0.5393
 1536SOL     MW 5334   4.971   5.693   4.086  0.2275  0.2189  0.5121
 1537SOL     OW 5335   3.969   2.525   4.442 -0.2185  0.3046 -0.5315
 1537SOL    HW1 5336   3.962   2.535   4.537 -1.3353  0.4477 -0.6169
 1537SOL    HW2 5337   4.006   2.437   4.430 -0.0328  0.3020  0.0377
 1537SOL     MW 5338   3.973   2.515   4.453 -0.3381  0.3228 -0.4692
 1538SOL     OW 5339   4.570   1.122   2.071 -0.2299  0.3431 -0.6770
 1538SOL    HW1 5340   4.492   1.086   2.113 -1.4457  0.4575 -2.7548
 1538SOL    HW2 5341   4.639   1.058   2.089 -0.2930  1.1708  2.7959
 1538SOL     MW 5342   4.569   1.109   2.079 -0.3934  0.4637 -0.4988
 1539SOL     OW 5343   5.089   2.034   5.768  0.4872 -0.3156  0.0908
 1539SOL    HW1 5344   5.054   2.106   5.820  2.7935  0.3868  0.7581
 1539SOL    HW2 5345   5.148   1.988   5.829  3.0304  0.3561 -1.7518
 1539SOL     MW 5346   5.092   2.037   5.782  1.1072 -0.1397 -0.0591
 1540SOL     OW 5347   4.633   2.986   3.379 -0.4893  0.3206  0.8450
 1540SOL    HW1 5348   4.605   3.071   3.347  2.2421  1.1970  0.6818
 1540SOL    HW2 5349   4.708   2.962   3.324 -0.5474 -1.6772  1.5806
 1540SOL     MW 5350   4.639   2.994   3.368 -0.1473  0.1771  0.9184
 1541SOL     OW 5351   0.464   2.623   2.727 -0.2713  0.1844  0.3164
 1541SOL    HW1 5352   0.472   2.714   2.697 -0.5903 -0.7527 -2.8687
 1541SOL    HW2 5353   0.371   2.602   2.715 -0.4838 -0.1507  2.3846
 1541SOL     MW 5354   0.453   2.632   2.721 -0.3393  0.0215  0.1733
 1542SOL     OW 5355   1.334   2.915   1.076  0.0809 -0.1956  0.1245
 1542SOL    HW1 5356   1.269   2.907   1.145 -0.1711 -0.8372 -0.1869
 1542SOL    HW2 5357   1.332   2.830   1.031 -0.3135  0.4933 -1.1656
 1542SOL     MW 5358   1.326   2.903   1.079 -0.0018 -0.1895 -0.0806
 1543SOL     OW 5359   5.872   0.045   4.941 -0.2191  0.0771  0.1284
 1543SOL    HW1 5360   5.805  -0.021   4.923 -0.4452  0.7931 -1.7188
 1543SOL    HW2 5361   5.838   0.092   5.018  0.0802 -2.0973  1.6486
 1543SOL     MW 5362   5.859   0.043   4.949 -0.2093 -0.1096  0.0868
 1544SOL     OW 5363   2.528   1.369   0.683  0.4365  0.1259  0.0002
 1544SOL    HW1 5364   2.491   1.455   0.706  0.0391  0.1367 -0.6833
 1544SOL    HW2 5365   2.615   1.389   0.649  0.2815  0.2736 -0.3106
 1544SOL     MW 5366   2.534   1.383   0.682  0.3657  0.1463 -0.1271
 1545SOL     OW 5367   0.484   3.247   1.227  0.1236  0.3100  0.7185
 1545SOL    HW1 5368   0.491   3.186   1.300 -1.6830  1.5776  1.9971
 1545SOL    HW2 5369   0.489   3.192   1.149  2.8675 -0.9709  1.7518
 1545SOL     MW 5370   0.486   3.232   1.226  0.2436  0.3083  1.0145
 1546SOL     OW 5371   5.444   5.095   3.271  0.6465 -0.0220  0.3292
 1546SOL    HW1 5372   5.405   5.025   3.324 -1.4501  0.1737 -0.8691
 1546SOL    HW2 5373   5.470   5.051   3.190 -2.3339  0.8662 -1.1611
 1546SOL     MW 5374   5.442   5.080   3.267 -0.0029  0.1173 -0.0148
 1547SOL     OW 5375   2.582   4.911   1.622 -0.0581 -0.3924 -0.5147
 1547SOL    HW1 5376   2.663   4.929   1.670 -1.3430  2.6795  0.6331
 1547SOL    HW2 5377   2.533   4.852   1.680 -1.3201  2.7847  1.8685
 1547SOL     MW 5378   2.586   4.906   1.636 -0.3841  0.4077 -0.0628
 1548SOL     OW 5379   2.359   3.164   0.561  0.3562 -0.0873 -0.6093
 1548SOL    HW1 5380   2.414   3.242   0.564  1.4279 -0.7858 -1.4509
 1548SOL    HW2 5381   2.293   3.183   0.495  0.2824  0.3082 -0.4248
 1548SOL     MW 5382   2.358   3.176   0.553  0.4838 -0.1259 -0.6934
 1549SOL     OW 5383   1.358   1.192   2.553  0.2761 -0.0980  0.6244
 1549SOL    HW1 5384   1.332   1.154   2.469 -1.2451 -0.7642  1.3783
 1549SOL    HW2 5385   1.411   1.268   2.529 -0.5535  0.0129 -0.9442
 1549SOL     MW 5386   1.362   1.197   2.539 -0.0247 -0.1692  0.5202
 1550SOL     OW 5387   0.712   1.039   2.251 -0.5805  0.3950 -0.2894
 1550SOL    HW1 5388   0.754   1.124   2.236  0.1112 -0.0580 -0.9542
 1550SOL    HW2 5389   0.778   0.975   2.225 -0.9396 -0.3577  0.6221
 1550SOL     MW 5390   0.726   1.042   2.246 -0.5379  0.2407 -0.2580
 1551SOL     OW 5391   5.273   5.393   0.804  0.4162  0.8283 -0.1359
 1551SOL    HW1 5392   5.293   5.305   0.773  0.2555  1.0026 -0.7553
 1551SOL    HW2 5393   5.209   5.380   0.874  1.4515  0.3733  0.7315
 1551SOL     MW 5394   5.267   5.380   0.809  0.5279  0.7925 -0.1041
 1552SOL     OW 5395   5.534   4.037   3.430 -0.4799  0.2434  0.1199
 1552SOL    HW1 5396   5.495   4.087   3.359 -0.4426  1.4604  0.9460
 1552SOL    HW2 5397   5.575   4.102   3.487 -1.3789 -0.5966  1.7981
 1552SOL     MW 5398   5.534   4.051   3.428 -0.5903  0.2918  0.4404
 1553SOL     OW 5399   3.825   3.891   3.307  0.0440  0.1637 -0.6074
 1553SOL    HW1 5400   3.834   3.982   3.281 -1.5121  0.3024 -0.7017
 1553SOL    HW2 5401   3.741   3.887   3.352 -0.2337 -1.3570 -1.2231
 1553SOL     MW 5402   3.816   3.902   3.310 -0.1907 -0.0131 -0.6983
 1554SOL     OW 5403   4.582   5.308   4.222 -0.3599 -0.5556 -0.7346
 1554SOL    HW1 5404   4.648   5.242   4.242 -1.8873 -1.6466  0.8576
 1554SOL    HW2 5405   4.618   5.389   4.260 -0.6897 -1.4924  1.7006
 1554SOL     MW 5406   4.595   5.310   4.230 -0.5975 -0.8154 -0.2193
 1555SOL     OW 5407   4.114   4.748   3.510 -0.1585  0.6401 -0.4041
 1555SOL    HW1 5408   4.118   4.658   3.477 -0.8432  0.3780  0.2168
 1555SOL    HW2 5409   4.178   4.750   3.581  0.6803  0.9618 -1.1650
 1555SOL     MW 5410   4.122   4.737   3.515 -0.1392  0.6475 -0.4220
 1556SOL     OW 5411   1.505   3.253   4.375 -0.5737 -0.0293 -0.5719
 1556SOL    HW1 5412   1.423   3.289   4.343  0.3446  0.4589 -2.4662
 1556SOL    HW2 5413   1.564   3.255   4.299  1.4455  0.4280  0.9465
 1556SOL     MW 5414   1.502   3.258   4.361 -0.1978  0.0918 -0.6204
 1557SOL     OW 5415   1.725   5.643   0.260 -0.1517  0.4976 -0.3203
 1557SOL    HW1 5416   1.758   5.595   0.336 -2.2470  0.4959  0.5893
 1557SOL    HW2 5417   1.706   5.574   0.196 -1.1801  0.2728  0.2255
 1557SOL     MW 5418   1.727   5.628   0.261 -0.5516  0.4687 -0.1340
 1558SOL     OW 5419   4.443   0.765   4.285 -0.0755  0.2843 -0.3986
 1558SOL    HW1 5420   4.430   0.673   4.309 -1.0659 -0.4406 -3.5432
 1558SOL    HW2 5421   4.537   0.772   4.266  0.0783  0.0512  0.2612
 1558SOL     MW 5422   4.454   0.754   4.286 -0.1826  0.1617 -0.7167
 1559SOL     OW 5423   2.188   2.600   4.573  0.1698 -0.4040 -0.2040
 1559SOL    HW1 5424   2.098   2.614   4.602  0.5621 -1.9208  1.7949
 1559SOL    HW2 5425   2.181   2.588   4.478 -1.7817 -0.8021 -0.0215
 1559SOL     MW 5426   2.176   2.600   4.564 -0.0298 -0.6487  0.0753
 1560SOL     OW 5427   4.079   0.516   3.454 -0.0637 -0.4180 -0.3049
 1560SOL    HW1 5428   3.986   0.493   3.458 -0.4350  1.3847  2.2905
 1560SOL    HW2 5429   4.121   0.457   3.518  0.5791 -1.0839 -1.3172
 1560SOL     MW 5430   4.073   0.505   3.463 -0.0291 -0.2725 -0.1025
 1561SOL     OW 5431   4.769   2.821   5.134 -0.3220  0.4487  0.0309
 1561SOL    HW1 5432   4.731   2.752   5.190 -1.4059  0.8394 -0.1995
 1561SOL    HW2 5433   4.820   2.875   5.194 -1.6293  0.9704  0.7003
 1561SOL     MW 5434   4.770   2.819   5.149 -0.6275  0.5653  0.0868
 1562SOL     OW 5435   1.500   1.489   4.570  0.2757 -0.9869  0.0188
 1562SOL    HW1 5436   1.460   1.459   4.652 -0.2221  1.2067  0.6008
 1562SOL    HW2 5437   1.431   1.481   4.505  0.6287 -2.5952 -0.1922
 1562SOL     MW 5438   1.486   1.484   4.573  0.2571 -0.9120  0.0663
 1563SOL     OW 5439   2.734   5.040   2.458 -0.4140  0.0290 -0.6234
 1563SOL    HW1 5440   2.689   5.115   2.419 -0.3548 -0.0533 -0.8490
 1563SOL    HW2 5441   2.734   5.059   2.552 -0.6563  0.1719 -0.6513
 1563SOL     MW 5442   2.728   5.052   2.465 -0.4375  0.0367 -0.6559
 1564SOL     OW 5443   2.733   2.735   0.723  0.4515 -0.5570 -0.3557
 1564SOL    HW1 5444   2.737   2.664   0.786  0.1275  0.2738  0.6221
 1564SOL    HW2 5445   2.717   2.692   0.639  0.6319 -1.6538  0.1616
 1564SOL     MW 5446   2.731   2.721   0.720  0.4332 -0.5910 -0.1643
 1565SOL     OW 5447   3.120   3.343   1.417 -0.2367 -0.6940 -0.1036
 1565SOL    HW1 5448   3.049   3.401   1.444 -0.4357 -1.0988  0.2584
 1565SOL    HW2 5449   3.083   3.255   1.425  0.1900 -0.8889 -0.2601
 1565SOL     MW 5450   3.106   3.339   1.422 -0.2077 -0.7706 -0.0772
 1566SOL     OW 5451   3.725   2.209   3.806 -0.2930 -0.4766  0.5294
 1566SOL    HW1 5452   3.819   2.202   3.789 -0.2997  1.1393 -0.3610
 1566SOL    HW2 5453   3.711   2.301   3.828 -1.4991 -0.9497  1.8226
 1566SOL     MW 5454   3.735   2.220   3.806 -0.4485 -0.3302  0.5810
 1567SOL     OW 5455   1.449   0.162   5.640  0.2946 -0.2373 -0.2472
 1567SOL    HW1 5456   1.382   0.126   5.582 -0.9825  0.6404  0.6813
 1567SOL    HW2 5457   1.524   0.103   5.629 -0.6525 -1.2799 -1.2083
 1567SOL     MW 5458   1.450   0.149   5.631  0.0099 -0.2584 -0.2513
 1568SOL     OW 5459   3.741   2.873   1.384  0.0738  0.2438  0.3587
 1568SOL    HW1 5460   3.773   2.783   1.381 -0.6201  0.0424 -1.8636
 1568SOL    HW2 5461   3.760   2.908   1.297 -0.0132  2.1292  1.0813
 1568SOL     MW 5462   3.748   2.866   1.373 -0.0260  0.4592  0.1668
 1569SOL     OW 5463   2.006   0.600   4.840  0.1048 -0.1964  0.3216
 1569SOL    HW1 5464   1.937   0.653   4.800  1.1647  1.6012  0.8068
 1569SOL    HW2 5465   2.068   0.584   4.768 -0.2791 -0.8809  0.1454
 1569SOL     MW 5466   2.006   0.605   4.826  0.1915 -0.0540  0.3614
 1570SOL     OW 5467   5.084   0.628   4.396  1.1677  0.2386  0.7194
 1570SOL    HW1 5468   5.085   0.532   4.397  1.8818  0.2094 -1.2834
 1570SOL    HW2 5469   5.164   0.652   4.349 -0.7055  1.7475 -1.8146
 1570SOL     MW 5470   5.094   0.619   4.390  1.0195  0.4280  0.1388
 1571SOL     OW 5471   5.805   5.776   0.936 -0.6159 -0.0607  0.0414
 1571SOL    HW1 5472   5.730   5.828   0.965  0.2267  1.1673  0.0728
 1571SOL    HW2 5473   5.770   5.719   0.867 -2.0393 -1.0386  1.5190
 1571SOL     MW 5474   5.791   5.775   0.931 -0.6900 -0.0281  0.2346
 1572SOL     OW 5475   5.586   4.591   2.512  0.3591  0.4616  0.0489
 1572SOL    HW1 5476   5.610   4.504   2.542 -1.6837 -0.0810  0.1901
 1572SOL    HW2 5477   5.541   4.576   2.428 -1.0545  1.2390  0.6449
 1572SOL     MW 5478   5.583   4.578   2.505 -0.0830  0.4916  0.1433
 1573SOL     OW 5479   4.793   3.906   5.491 -0.3244  0.1358  0.5086
 1573SOL    HW1 5480   4.769   3.901   5.583  2.6069 -1.0180  1.2496
 1573SOL    HW2 5481   4.881   3.944   5.490 -0.0712 -0.4045 -1.7669
 1573SOL     MW 5482   4.801   3.910   5.503  0.0834 -0.0811  0.3119
 1574SOL     OW 5483   2.085   3.261   3.219  0.0881 -0.5521  0.5596
 1574SOL    HW1 5484   2.025   3.335   3.214 -1.2253 -1.6824 -1.0096
 1574SOL    HW2 5485   2.093   3.230   3.129  3.0684 -0.4354  0.7419
 1574SOL     MW 5486   2.078   3.266   3.207  0.3011 -0.6819  0.3822
 1575SOL     OW 5487   0.400   5.880   2.936 -0.0201  0.0867  0.1552
 1575SOL    HW1 5488   0.421   5.787   2.944  1.9817  0.2311 -2.4349
 1575SOL    HW2 5489   0.340   5.884   2.861 -1.5420  0.7170  1.3918
 1575SOL     MW 5490   0.395   5.869   2.927  0.0414  0.1860 -0.0179
 1576SOL     OW 5491   2.862   1.846   0.327 -0.8254  0.5142 -0.7466
 1576SOL    HW1 5492   2.957   1.836   0.325 -0.9729 -0.7173 -2.0444
 1576SOL    HW2 5493   2.828   1.770   0.279 -2.4542  1.0518 -0.4850
 1576SOL     MW 5494   2.870   1.835   0.321 -1.0529  0.4252 -0.8793
 1577SOL     OW 5495   0.446   0.313   3.129 -0.0100  0.1001  1.0502
 1577SOL    HW1 5496   0.352   0.301   3.113 -0.0396  0.7524  0.7193
 1577SOL    HW2 5497   0.457   0.294   3.222 -0.9822  3.0149  1.7890
 1577SOL     MW 5498   0.435   0.309   3.139 -0.1382  0.5567  1.1022
 1578SOL     OW 5499   3.742   1.135   1.949  0.4147  0.6336 -0.5402
 1578SOL    HW1 5500   3.761   1.201   2.015  0.6759  0.1337 -0.1158
 1578SOL    HW2 5501   3.657   1.161   1.913  0.3263  0.9672 -0.0908
 1578SOL     MW 5502   3.734   1.147   1.953  0.4368  0.6123 -0.4283
 1579SOL     OW 5503   3.064   3.332   0.358 -0.0519 -0.0248 -0.0098
 1579SOL    HW1 5504   3.109   3.284   0.428  0.8663  0.7615 -0.0517
 1579SOL    HW2 5505   3.130   3.393   0.325 -0.0581 -1.2492 -2.4092
 1579SOL     MW 5506   3.079   3.333   0.363  0.0648 -0.0808 -0.3223
 1580SOL     OW 5507   1.753   5.464   3.934  0.1221 -0.1160  0.5480
 1580SOL    HW1 5508   1.682   5.512   3.892  0.0694  0.0182  0.7847
 1580SOL    HW2 5509   1.805   5.532   3.977  0.2826 -0.2329  0.5373
 1580SOL     MW 5510   1.751   5.479   3.934  0.1359 -0.1140  0.5770
 1581SOL     OW 5511   5.901   2.004   0.790 -0.5200 -0.5045 -0.3024
 1581SOL    HW1 5512   5.815   1.967   0.811 -1.2649 -0.1698 -2.6047
 1581SOL    HW2 5513   5.950   1.930   0.753 -1.2945  0.2488 -2.9392
 1581SOL     MW 5514   5.897   1.990   0.788 -0.7143 -0.3651 -0.9347
 1582SOL     OW 5515   4.186   3.876   1.927  0.0080  0.1591 -0.6913
 1582SOL    HW1 5516   4.218   3.849   1.841 -0.3117 -5.5478  0.7205
 1582SOL    HW2 5517   4.265   3.904   1.974  1.0303 -1.5465 -1.3079
 1582SOL     MW 5518   4.201   3.876   1.922  0.0978 -0.7899 -0.5894
 1583SOL     OW 5519   5.401   2.290   2.617  0.2058 -0.0941 -0.0494
 1583SOL    HW1 5520   5.431   2.231   2.548 -0.9078 -1.2043  0.3802
 1583SOL    HW2 5521   5.431   2.250   2.699 -2.2839 -1.1942  0.3795
 1583SOL     MW 5522   5.408   2.277   2.619 -0.2556 -0.3772  0.0606
 1584SOL     OW 5523   1.107   0.766   4.105 -0.1989  0.1818 -0.1440
 1584SOL    HW1 5524   1.137   0.685   4.064 -1.3885 -2.4256  3.8647
 1584SOL    HW2 5525   1.188   0.815   4.124  0.8920 -2.1984  1.5194
 1584SOL     MW 5526   1.121   0.762   4.102 -0.2115 -0.4567  0.5822
 1585SOL     OW 5527   0.455   0.673   1.034 -0.7912 -0.4089 -0.1759
 1585SOL    HW1 5528   0.542   0.710   1.017 -0.7569 -1.4854 -2.5597
 1585SOL    HW2 5529   0.405   0.745   1.070  0.6104  0.6911 -0.3680
 1585SOL     MW 5530   0.460   0.687   1.037 -0.6074 -0.4058 -0.5058
 1586SOL     OW 5531   3.572   0.787   4.003  0.2399 -0.6700  0.3087
 1586SOL    HW1 5532   3.587   0.745   4.087  1.1206 -0.8612  0.0646
 1586SOL    HW2 5533   3.527   0.869   4.024 -0.9459 -1.4354  0.8303
 1586SOL     MW 5534   3.568   0.792   4.016  0.2010 -0.7924  0.3443
 1587SOL     OW 5535   3.096   0.588   1.797  0.5857 -0.1486 -0.2388
 1587SOL    HW1 5536   3.177   0.563   1.751 -0.2840 -1.0487 -1.3005
 1587SOL    HW2 5537   3.086   0.681   1.781  0.2181 -0.4843 -2.0043
 1587SOL     MW 5538   3.105   0.597   1.789  0.4272 -0.3068 -0.6007
 1588SOL     OW 5539   2.383   2.122   0.103 -0.0845  0.3556  0.0440
 1588SOL    HW1 5540   2.380   2.203   0.051 -0.5389  0.6923  0.5904
 1588SOL    HW2 5541   2.294   2.112   0.136 -0.0387 -0.4000 -0.0663
 1588SOL     MW 5542   2.371   2.131   0.100 -0.1369  0.3021  0.0999
 1589SOL     OW 5543   0.986   0.047   2.713  0.3511 -0.2923 -0.9023
 1589SOL    HW1 5544   0.939   0.130   2.719  0.1117 -0.3325 -2.0025
 1589SOL    HW2 5545   0.920  -0.020   2.731  0.7789 -0.2002  1.0099
 1589SOL     MW 5546   0.971   0.049   2.716  0.3753 -0.2857 -0.7982
 1590SOL     OW 5547   5.145   4.364   2.291  0.0300  0.5972 -0.0183
 1590SOL    HW1 5548   5.134   4.454   2.261 -0.7620  0.6453  0.3975
 1590SOL    HW2 5549   5.225   4.334   2.249  0.8265  1.8102  0.5885
 1590SOL     MW 5550   5.154   4.371   2.282  0.0310  0.7582  0.1123
 1591SOL     OW 5551   0.576   2.581   1.061  0.0397 -0.2141 -0.5008
 1591SOL    HW1 5552   0.608   2.508   1.114  2.1510 -1.5235 -3.4453
 1591SOL    HW2 5553   0.518   2.540   0.996 -2.9487  1.4237  1.0215
 1591SOL     MW 5554   0.573   2.567   1.059 -0.0726 -0.1721 -0.6828
 1592SOL     OW 5555   5.815   4.330   2.107  0.0364 -0.0621  0.5180
 1592SOL    HW1 5556   5.899   4.332   2.154  0.9335  1.3897 -1.0879
 1592SOL    HW2 5557   5.781   4.419   2.115 -1.5465 -0.7453  1.4692
 1592SOL     MW 5558   5.822   4.342   2.114 -0.0515  0.0358  0.4344
 1593SOL     OW 5559   5.341   4.560   0.839 -0.2415  0.1170 -0.2205
 1593SOL    HW1 5560   5.363   4.642   0.882  1.0472 -1.0449  1.4383
 1593SOL    HW2 5561   5.264   4.528   0.887 -0.8075  0.4131 -0.9329
 1593SOL     MW 5562   5.334   4.566   0.851 -0.1493  0.0062 -0.0994
 1594SOL     OW 5563   0.842   3.948   5.216  0.6454 -0.0215  0.6146
 1594SOL    HW1 5564   0.807   4.037   5.210  0.6230  0.0430  1.7359
 1594SOL    HW2 5565   0.932   3.956   5.183  0.1368  0.1078 -0.7814
 1594SOL     MW 5566   0.849   3.961   5.211  0.5774  0.0033  0.5794
 1595SOL     OW 5567   2.504   5.430   4.238  0.4532  0.1814  0.1752
 1595SOL    HW1 5568   2.508   5.351   4.185 -0.2097 -0.9710  1.7885
 1595SOL    HW2 5569   2.411   5.451   4.245  0.5986  0.8639  0.0822
 1595SOL     MW 5570   2.493   5.422   4.232  0.3870  0.1221  0.3700
 1596SOL     OW 5571   0.540   2.901   2.709  0.0637 -0.1390 -0.1118
 1596SOL    HW1 5572   0.539   2.926   2.617  0.4200  0.8048  0.1394
 1596SOL    HW2 5573   0.626   2.927   2.741  1.1839 -3.3250 -0.2708
 1596SOL     MW 5574   0.551   2.907   2.701  0.2528 -0.4258 -0.1001
 1597SOL     OW 5575   3.995   5.150   4.128  0.2562 -0.1405 -0.3357
 1597SOL    HW1 5576   3.961   5.238   4.145 -0.4713 -0.6708  1.0140
 1597SOL    HW2 5577   4.088   5.164   4.109  0.6493  0.7148  2.0827
 1597SOL     MW 5578   4.003   5.163   4.127  0.2136 -0.0987  0.1469
 1598SOL     OW 5579   5.190   0.159   1.217  0.4398 -0.2986 -0.2076
 1598SOL    HW1 5580   5.249   0.091   1.248  1.0172 -0.0122 -0.6848
 1598SOL    HW2 5581   5.104   0.117   1.216  0.6704 -0.7889  0.2262
 1598SOL     MW 5582   5.186   0.145   1.221  0.5431 -0.3247 -0.2133
 1599SOL     OW 5583   3.012   1.049   2.581 -0.1747 -0.2430  0.6935
 1599SOL    HW1 5584   3.031   1.064   2.673 -1.6119 -0.6545  1.0692
 1599SOL    HW2 5585   3.006   0.954   2.573  2.4873 -0.3630 -0.3628
 1599SOL     MW 5586   3.013   1.039   2.591 -0.0181 -0.3110  0.6063
 1600SOL     OW 5587   3.118   0.382   4.196 -0.3625  0.1256  0.1024
 1600SOL    HW1 5588   3.189   0.318   4.199 -1.2864 -1.0334 -1.6442
 1600SOL    HW2 5589   3.041   0.331   4.170 -1.0780  1.9621 -1.4854
 1600SOL     MW 5590   3.117   0.367   4.193 -0.5722  0.2123 -0.3247
 1601SOL     OW 5591   1.616   2.766   5.508  0.0160  0.5226  0.1535
 1601SOL    HW1 5592   1.623   2.852   5.550  1.1357 -0.3200  1.7510
 1601SOL    HW2 5593   1.707   2.739   5.495 -0.2873 -1.5454  2.0351
 1601SOL     MW 5594   1.629   2.773   5.511  0.1205  0.1502  0.5989
 1602SOL     OW 5595   0.610   0.818   1.287  0.1387 -0.3207 -0.3378
 1602SOL    HW1 5596   0.696   0.840   1.252 -1.2243 -0.9087 -4.2875
 1602SOL    HW2 5597   0.612   0.724   1.301  0.5616 -0.1373  0.9178
 1602SOL     MW 5598   0.621   0.809   1.284  0.0184 -0.3724 -0.6827
 1603SOL     OW 5599   3.191   0.978   0.768 -0.3564  0.8351 -0.2893
 1603SOL    HW1 5600   3.232   0.972   0.682  0.2041  2.5678 -0.1557
 1603SOL    HW2 5601   3.249   1.035   0.819 -0.9704  0.2791  1.0662
 1603SOL     MW 5602   3.204   0.984   0.764 -0.3633  0.9857 -0.0987
 1604SOL     OW 5603   0.209   5.645   2.255 -0.3630 -0.2808  0.0100
 1604SOL    HW1 5604   0.216   5.573   2.318  0.1221  0.5021  0.8671
 1604SOL    HW2 5605   0.121   5.679   2.266 -0.6773 -0.8982 -0.5718
 1604SOL     MW 5606   0.199   5.640   2.264 -0.3411 -0.2599  0.0451
 1605SOL     OW 5607   0.618   5.370   2.021  0.0391 -0.3199  0.1317
 1605SOL    HW1 5608   0.537   5.361   2.072 -0.3596 -1.6910 -0.7088
 1605SOL    HW2 5609   0.596   5.334   1.935  1.4401 -0.3311 -0.2290
 1605SOL     MW 5610   0.605   5.364   2.016  0.1674 -0.4969 -0.0219
 1606SOL     OW 5611   0.720   4.519   1.255  0.4829 -0.0979  0.4519
 1606SOL    HW1 5612   0.681   4.596   1.213 -0.3558 -0.5457  0.3872
 1606SOL    HW2 5613   0.768   4.554   1.330  2.0338  0.7190 -0.8998
 1606SOL     MW 5614   0.721   4.533   1.259  0.5741 -0.0510  0.2706
 1607SOL     OW 5615   4.667   1.423   2.520  0.6343 -0.0793  0.0151
 1607SOL    HW1 5616   4.745   1.415   2.464 -0.0960 -0.3204 -0.9854
 1607SOL    HW2 5617   4.641   1.515   2.511  1.4156  0.2630  1.1899
 1607SOL     MW 5618   4.674   1.434   2.511  0.6409 -0.0663  0.0377
 1608SOL     OW 5619   3.492   0.774   2.886 -0.3676  0.1688  0.5038
 1608SOL    HW1 5620   3.436   0.740   2.817 -1.3899  0.4012  1.2211
 1608SOL    HW2 5621   3.577   0.787   2.843 -1.3313  1.5699 -1.0487
 1608SOL     MW 5622   3.496   0.771   2.872 -0.6218  0.3779  0.3970
 1609SOL     OW 5623   3.383   1.178   2.508  0.6856  0.0973 -0.1398
 1609SOL    HW1 5624   3.315   1.244   2.519 -0.2658 -1.0682  1.2393
 1609SOL    HW2 5625   3.334   1.097   2.491  1.7074 -0.8165  1.2051
 1609SOL     MW 5626   3.368   1.176   2.507  0.6945 -0.1689  0.2091
 1610SOL     OW 5627   5.393   2.263   0.512  0.8773  0.2600  0.7322
 1610SOL    HW1 5628   5.329   2.225   0.451  2.8279 -0.2475 -1.0452
 1610SOL    HW2 5629   5.411   2.194   0.575 -1.4443  0.9130  2.1788
 1610SOL     MW 5630   5.387   2.249   0.512  0.8297  0.2787  0.6899
 1611SOL     OW 5631   0.070   5.044   4.380 -0.1118  0.6415  0.0459
 1611SOL    HW1 5632   0.138   5.074   4.319  1.1542 -0.7540  0.7332
 1611SOL    HW2 5633   0.118   5.022   4.460 -1.3009 -0.8426  0.3695
 1611SOL     MW 5634   0.085   5.045   4.383 -0.1020  0.2732  0.1755
 1612SOL     OW 5635   2.911   1.735   3.000  0.2114 -0.4556 -0.2351
 1612SOL    HW1 5636   2.858   1.739   2.921  0.4788 -2.6591 -0.5660
 1612SOL    HW2 5637   2.912   1.642   3.023 -0.0374  0.1764  2.4773
 1612SOL     MW 5638   2.904   1.724   2.993  0.2139 -0.6568  0.0696
 1613SOL     OW 5639   4.564   1.744   0.283 -0.0311  0.4025  0.6574
 1613SOL    HW1 5640   4.571   1.649   0.276  0.4766  0.1604  3.4981
 1613SOL    HW2 5641   4.655   1.775   0.277 -0.1189  0.6396  0.5346
 1613SOL     MW 5642   4.577   1.736   0.282  0.0224  0.4017  1.0054
 1614SOL     OW 5643   5.670   3.998   2.661 -0.9036 -0.6487 -0.5820
 1614SOL    HW1 5644   5.671   4.088   2.627  0.4381 -0.1675  0.6951
 1614SOL    HW2 5645   5.704   3.945   2.589 -0.1635  0.0763 -0.7714
 1614SOL     MW 5646   5.675   4.003   2.648 -0.6371 -0.4940 -0.4430
 1615SOL     OW 5647   5.474   4.449   4.822 -0.0421  0.1676 -0.0705
 1615SOL    HW1 5648   5.395   4.496   4.848 -1.3115 -0.7966 -2.0832
 1615SOL    HW2 5649   5.452   4.409   4.738  1.5378 -2.7069  0.8050
 1615SOL     MW 5650   5.461   4.450   4.814 -0.0024 -0.3233 -0.2155
 1616SOL     OW 5651   3.271   5.262   2.357 -0.4260  0.5521 -0.1616
 1616SOL    HW1 5652   3.279   5.214   2.275  0.3793  0.0927  0.1888
 1616SOL    HW2 5653   3.181   5.296   2.356 -1.6719 -2.5489  0.4708
 1616SOL     MW 5654   3.261   5.260   2.346 -0.4826  0.0963 -0.0358
 1617SOL     OW 5655   4.915   2.794   0.908  0.2592 -0.2250 -0.0344
 1617SOL    HW1 5656   4.906   2.813   1.002  0.1821 -2.1699  0.3676
 1617SOL    HW2 5657   4.882   2.705   0.898 -0.0923  0.0979 -1.9921
 1617SOL     MW 5658   4.909   2.785   0.919  0.2046 -0.4323 -0.2336
 1618SOL     OW 5659   2.641   4.610   3.316 -0.7704 -0.0100 -0.0081
 1618SOL    HW1 5660   2.572   4.548   3.293  1.0259 -1.0889 -2.6637
 1618SOL    HW2 5661   2.716   4.584   3.263  1.7447  1.0827  2.8566
 1618SOL     MW 5662   2.642   4.599   3.306 -0.2184 -0.0086  0.0186
 1619SOL     OW 5663   1.604   0.362   4.942  0.0194  0.3748 -0.3645
 1619SOL    HW1 5664   1.525   0.349   4.994 -0.6115 -0.3700 -1.4693
 1619SOL    HW2 5665   1.571   0.389   4.856  0.9173 -0.7068 -1.0706
 1619SOL     MW 5666   1.590   0.364   4.937  0.0536  0.1410 -0.5956
 1620SOL     OW 5667   5.704   3.824   0.842 -0.0094  0.1845  0.0018
 1620SOL    HW1 5668   5.616   3.852   0.869 -0.4138 -2.1528  1.1824
 1620SOL    HW2 5669   5.759   3.900   0.859 -1.6713  1.4543 -0.1214
 1620SOL     MW 5670   5.700   3.837   0.848 -0.2732  0.0477  0.1371
 1621SOL     OW 5671   5.742   0.539   5.401 -0.4661 -0.5793 -0.3577
 1621SOL    HW1 5672   5.712   0.481   5.330 -0.6552  0.2163 -0.9315
 1621SOL    HW2 5673   5.677   0.528   5.470 -1.2373 -0.0400 -0.9902
 1621SOL     MW 5674   5.730   0.530   5.400 -0.5889 -0.4084 -0.5126
 1622SOL     OW 5675   0.556   1.048   4.068  0.4908 -0.7175 -0.5501
 1622SOL    HW1 5676   0.588   0.963   4.036  1.3469 -0.0008 -1.6324
 1622SOL    HW2 5677   0.631   1.107   4.057  1.1097 -0.6183  3.5784
 1622SOL     MW 5678   0.570   1.045   4.062  0.6796 -0.6131 -0.1602
 1623SOL     OW 5679   1.692   3.105   3.708 -0.5504  0.3319 -0.4133
 1623SOL    HW1 5680   1.736   3.139   3.630  3.6323 -1.2080  1.0960
 1623SOL    HW2 5681   1.707   3.172   3.775 -0.3332 -0.3010  0.1762
 1623SOL     MW 5682   1.700   3.118   3.707  0.0126  0.0541 -0.1445
 1624SOL     OW 5683   0.402   2.387   5.246 -0.1061  0.5765 -0.6331
 1624SOL    HW1 5684   0.393   2.415   5.155  0.3386 -1.1822 -1.2275
 1624SOL    HW2 5685   0.455   2.307   5.242  2.8900  2.3295  1.4580
 1624SOL     MW 5686   0.408   2.381   5.234  0.3344  0.5755 -0.4416
 1625SOL     OW 5687   0.056   4.288   1.066 -0.3603 -0.0417 -0.3895
 1625SOL    HW1 5688  -0.039   4.298   1.067 -0.3954 -0.3914 -0.2348
 1625SOL    HW2 5689   0.078   4.270   0.974 -0.2753  1.6571 -0.7104
 1625SOL     MW 5690   0.047   4.287   1.054 -0.3539  0.1311 -0.4108
 1626SOL     OW 5691   4.933   0.600   4.112 -0.0389  0.5055 -0.2030
 1626SOL    HW1 5692   5.017   0.598   4.065  0.1320  1.5847  0.0506
 1626SOL    HW2 5693   4.957   0.603   4.204 -0.3710 -3.3239  0.0993
 1626SOL     MW 5694   4.947   0.600   4.118 -0.0596  0.1535 -0.1316
 1627SOL     OW 5695   5.024   0.124   2.363 -0.4794 -0.3271  0.1179
 1627SOL    HW1 5696   5.117   0.143   2.366 -0.5064 -0.3125  0.8155
 1627SOL    HW2 5697   4.982   0.210   2.368 -0.5088 -0.2207 -1.6527
 1627SOL     MW 5698   5.030   0.138   2.364 -0.4864 -0.3116 -0.0191
 1628SOL     OW 5699   3.352   2.748   2.019 -0.0973  0.7334  0.2442
 1628SOL    HW1 5700   3.275   2.715   2.065 -0.7738 -0.4588 -1.6519
 1628SOL    HW2 5701   3.414   2.675   2.021  0.8186  1.5428  1.4011
 1628SOL     MW 5702   3.350   2.734   2.025 -0.0665  0.6845  0.1497
 1629SOL     OW 5703   4.346   1.043   0.569 -0.1611 -0.4888 -0.5820
 1629SOL    HW1 5704   4.389   1.033   0.654  0.0974 -1.6007 -0.8341
 1629SOL    HW2 5705   4.367   1.133   0.542  1.6121 -0.8409 -0.4783
 1629SOL     MW 5706   4.354   1.054   0.576  0.0992 -0.6763 -0.6009
 1630SOL     OW 5707   5.046   5.226   3.855 -0.0250  0.3325  0.1124
 1630SOL    HW1 5708   4.963   5.259   3.889 -0.7247 -1.7488  0.5067
 1630SOL    HW2 5709   5.045   5.249   3.762 -3.2245 -3.6835 -0.9948
 1630SOL     MW 5710   5.036   5.233   3.847 -0.5245 -0.4482  0.0212
 1631SOL     OW 5711   2.642   2.797   3.064  0.2105 -0.1142 -0.2658
 1631SOL    HW1 5712   2.682   2.736   3.126  0.9812 -1.9094 -2.4521
 1631SOL    HW2 5713   2.561   2.754   3.038  0.3799  0.1423 -1.2363
 1631SOL     MW 5714   2.637   2.784   3.069  0.3307 -0.3109 -0.6697
 1632SOL     OW 5715   0.483   1.767   0.903 -0.6297 -0.1576 -0.0451
 1632SOL    HW1 5716   0.488   1.801   0.992  0.5377 -0.0370 -0.1536
 1632SOL    HW2 5717   0.418   1.697   0.908 -0.6519 -0.0786  0.8704
 1632SOL     MW 5718   0.475   1.763   0.915 -0.4831 -0.1321  0.0582
 1633SOL     OW 5719   5.581   0.394   2.165  0.2501 -0.1945  0.2787
 1633SOL    HW1 5720   5.623   0.468   2.122  0.8823 -0.5714  0.2539
 1633SOL    HW2 5721   5.525   0.434   2.232 -0.3158  0.3646 -0.5148
 1633SOL     MW 5722   5.579   0.408   2.168  0.2589 -0.1712  0.1740
 1634SOL     OW 5723   1.955   5.342   2.224 -0.3275  0.0545  0.2255
 1634SOL    HW1 5724   1.909   5.343   2.307  0.5408 -1.4660  0.7356
 1634SOL    HW2 5725   1.941   5.254   2.189  0.2668  0.3147 -0.6984
 1634SOL     MW 5726   1.947   5.331   2.230 -0.1403 -0.1073  0.1726
 1635SOL     OW 5727   4.427   0.213   2.477  0.0715  0.0085 -0.4102
 1635SOL    HW1 5728   4.378   0.170   2.547  1.7197 -0.0398  0.7463
 1635SOL    HW2 5729   4.360   0.244   2.416 -1.2964 -1.5148  0.2843
 1635SOL     MW 5730   4.413   0.211   2.479  0.1073 -0.1927 -0.1731
 1636SOL     OW 5731   1.737   0.495   2.453 -0.3340  0.2953  0.9822
 1636SOL    HW1 5732   1.822   0.535   2.472 -0.6478  1.7333 -0.4994
 1636SOL    HW2 5733   1.704   0.466   2.538  1.3679  0.2637  1.6472
 1636SOL     MW 5734   1.744   0.497   2.466 -0.1563  0.4754  0.8776
 1637SOL     OW 5735   0.454   2.864   3.218 -0.1355  0.0528  0.0473
 1637SOL    HW1 5736   0.496   2.854   3.133 -0.1956  0.6800 -0.0586
 1637SOL    HW2 5737   0.509   2.927   3.265 -0.9562  0.9014 -0.1014
 1637SOL     MW 5738   0.466   2.871   3.213 -0.2483  0.2418  0.0145
 1638SOL     OW 5739   1.396   5.584   0.336  0.1463 -0.6507  0.1562
 1638SOL    HW1 5740   1.471   5.602   0.279  1.4687 -3.9099  0.7390
 1638SOL    HW2 5741   1.399   5.653   0.403  2.5491 -0.6622  0.0920
 1638SOL     MW 5742   1.406   5.595   0.337  0.6232 -1.0691  0.2226
 1639SOL     OW 5743   1.366   3.055   3.369  0.0976  0.0171  0.5600
 1639SOL    HW1 5744   1.394   3.060   3.460 -0.6327  1.6270  0.7185
 1639SOL    HW2 5745   1.288   2.999   3.371  0.2704 -0.2092  0.8851
 1639SOL     MW 5746   1.360   3.049   3.381  0.0263  0.1938  0.6220
 1640SOL     OW 5747   4.965   0.168   1.773 -0.1030 -0.1773  0.7268
 1640SOL    HW1 5748   5.050   0.154   1.814 -0.7241 -1.6925  1.5404
 1640SOL    HW2 5749   4.929   0.080   1.763  0.0978  0.1166 -3.2882
 1640SOL     MW 5750   4.971   0.155   1.777 -0.1569 -0.3337  0.3169
 1641SOL     OW 5751   1.549   4.836   3.271 -0.1691 -0.2715  0.1604
 1641SOL    HW1 5752   1.493   4.784   3.214 -1.4355 -1.0318  2.0460
 1641SOL    HW2 5753   1.513   4.924   3.266 -0.1711 -0.2994 -0.3323
 1641SOL     MW 5754   1.537   4.841   3.263 -0.3316 -0.3724  0.3388
 1642SOL     OW 5755   1.695   2.616   4.907 -0.1658  0.1455  0.4008
 1642SOL    HW1 5756   1.705   2.710   4.925 -0.8753 -0.0562  1.8936
 1642SOL    HW2 5757   1.638   2.584   4.977  2.0182 -1.8646  1.3226
 1642SOL     MW 5758   1.689   2.624   4.919  0.0230 -0.1378  0.7095
 1643SOL     OW 5759   3.927   0.976   5.151  0.6315 -0.1614 -0.3341
 1643SOL    HW1 5760   3.952   0.889   5.181 -1.0615 -0.8249 -0.8266
 1643SOL    HW2 5761   3.833   0.970   5.134  0.5295  1.7176 -0.5094
 1643SOL     MW 5762   3.918   0.964   5.152  0.4017 -0.0058 -0.4196
 1644SOL     OW 5763   4.917   0.513   0.018  0.0888  0.0952 -0.3740
 1644SOL    HW1 5764   4.862   0.582   0.055  2.1309  1.5178  0.1085
 1644SOL    HW2 5765   4.883   0.432   0.057 -0.9488  1.0538  0.7741
 1644SOL     MW 5766   4.905   0.511   0.028  0.2174  0.4000 -0.1653
 1645SOL     OW 5767   2.496   4.189   4.813 -0.0032  0.0206  0.4317
 1645SOL    HW1 5768   2.482   4.283   4.797 -0.8582 -0.3852 -1.4305
 1645SOL    HW2 5769   2.582   4.184   4.854  0.5691  1.5443 -0.5092
 1645SOL     MW 5770   2.505   4.201   4.816 -0.0396  0.1640  0.0730
 1646SOL     OW 5771   5.249   5.127   0.782 -0.8174 -0.1876  0.4517
 1646SOL    HW1 5772   5.340   5.098   0.784 -0.1429  1.7993  0.2209
 1646SOL    HW2 5773   5.210   5.090   0.861  0.1846 -1.0638  0.5514
 1646SOL     MW 5774   5.256   5.119   0.792 -0.6027 -0.0453  0.4350
 1647SOL     OW 5775   2.901   4.997   4.766  0.1684  0.2895 -0.4003
 1647SOL    HW1 5776   2.834   4.971   4.829  0.6089  1.8655  0.7484
 1647SOL    HW2 5777   2.917   5.089   4.785  1.2718  0.4248 -1.9457
 1647SOL     MW 5778   2.895   5.005   4.777  0.3660  0.5088 -0.4511
 1648SOL     OW 5779   0.207   5.727   5.427  0.2908 -0.6139 -0.4439
 1648SOL    HW1 5780   0.179   5.764   5.511  2.0540  0.1519 -0.1843
 1648SOL    HW2 5781   0.220   5.803   5.371  0.1433 -1.0717 -1.1057
 1648SOL     MW 5782   0.205   5.741   5.431  0.4976 -0.5751 -0.4954
 1649SOL     OW 5783   2.548   2.265   5.081 -0.4762  0.2692 -0.6302
 1649SOL    HW1 5784   2.508   2.296   4.999 -2.1742 -0.2227 -0.0057
 1649SOL    HW2 5785   2.560   2.345   5.133 -0.4190  0.4440 -0.9074
 1649SOL     MW 5786   2.545   2.279   5.077 -0.6864  0.2286 -0.5860
 1650SOL     OW 5787   2.482   2.330   3.451 -0.1975 -0.7909 -0.4079
 1650SOL    HW1 5788   2.416   2.379   3.500 -0.7666 -1.2206 -0.7488
 1650SOL    HW2 5789   2.433   2.282   3.385  0.5137 -0.6782 -1.0226
 1650SOL     MW 5790   2.467   2.330   3.449 -0.1793 -0.8316 -0.5305
 1651SOL     OW 5791   5.393   4.776   2.536  0.4875  0.3926  0.1474
 1651SOL    HW1 5792   5.478   4.733   2.532  0.1474 -0.4409  1.4805
 1651SOL    HW2 5793   5.335   4.711   2.577 -0.9487  0.6966 -1.3451
 1651SOL     MW 5794   5.397   4.762   2.541  0.2599  0.3242  0.1271
 1652SOL     OW 5795   5.363   5.977   1.360 -0.9894  0.3785 -0.1829
 1652SOL    HW1 5796   5.370   5.882   1.368 -1.0851  0.3404 -0.4994
 1652SOL    HW2 5797   5.329   6.007   1.444 -0.8411  0.1440 -0.0409
 1652SOL     MW 5798   5.360   5.969   1.371 -0.9832  0.3433 -0.2052
 1653SOL     OW 5799   5.531   0.132   2.084  0.3578  0.1982 -0.7283
 1653SOL    HW1 5800   5.560   0.126   1.993 -0.6025 -0.6695 -0.9856
 1653SOL    HW2 5801   5.554   0.221   2.111  1.7242  0.0687 -1.4449
 1653SOL     MW 5802   5.538   0.143   2.076  0.4096  0.0706 -0.8528
 1654SOL     OW 5803   5.674   2.893   5.041  0.0483 -0.5066  0.0443
 1654SOL    HW1 5804   5.714   2.980   5.046  0.0896 -0.4739 -0.7598
 1654SOL    HW2 5805   5.675   2.861   5.131  0.2296  0.2379  0.3132
 1654SOL     MW 5806   5.679   2.900   5.053  0.0772 -0.4067 -0.0243
 1655SOL     OW 5807   1.333   5.751   0.534 -0.3682 -0.4274  0.2456
 1655SOL    HW1 5808   1.308   5.721   0.621 -1.5230 -1.7815 -0.5238
 1655SOL    HW2 5809   1.303   5.842   0.530 -0.0701 -0.2801  1.3545
 1655SOL     MW 5810   1.326   5.759   0.544 -0.4779 -0.5817  0.2891
 1656SOL     OW 5811   3.555   5.512   4.000  0.1218  0.3179  0.2744
 1656SOL    HW1 5812   3.466   5.542   4.016  0.1329 -0.2052  1.3024
 1656SOL    HW2 5813   3.545   5.420   3.976  0.0855  1.0846 -2.9007
 1656SOL     MW 5814   3.542   5.504   3.999  0.1183  0.3495 -0.0005
 1657SOL     OW 5815   1.930   0.407   5.676 -0.2197  0.5504 -0.0676
 1657SOL    HW1 5816   1.988   0.439   5.606 -0.9211  3.0358  0.4391
 1657SOL    HW2 5817   1.988   0.360   5.735  0.4893 -1.0923 -1.9968
 1657SOL     MW 5818   1.945   0.405   5.674 -0.2186  0.6582 -0.2494
 1658SOL     OW 5819   0.681   3.618   2.472 -0.4667 -0.1234  0.1083
 1658SOL    HW1 5820   0.745   3.647   2.407  1.1830 -0.7321  1.4044
 1658SOL    HW2 5821   0.655   3.530   2.444  0.3177 -0.4260  0.3184
 1658SOL     MW 5822   0.686   3.610   2.460 -0.1550 -0.2403  0.3009
 1659SOL     OW 5823   1.001   1.208   1.718 -0.4408  0.1709  0.1137
 1659SOL    HW1 5824   0.931   1.188   1.781 -0.2239  0.2046  0.3688
 1659SOL    HW2 5825   0.961   1.271   1.658 -0.8226 -0.2928 -0.1182
 1659SOL     MW 5826   0.987   1.214   1.719 -0.4619  0.1159  0.1166
 1660SOL     OW 5827   0.307   5.462   3.536  1.0617  0.8143  0.0937
 1660SOL    HW1 5828   0.277   5.373   3.519 -2.0875  2.0118 -0.8758
 1660SOL    HW2 5829   0.389   5.469   3.486  2.4513 -2.1232  1.8026
 1660SOL     MW 5830   0.314   5.451   3.527  0.8364  0.5922  0.1884
 1661SOL     OW 5831   2.120   1.953   3.844 -0.0384 -0.2705  0.3992
 1661SOL    HW1 5832   2.062   1.894   3.892 -0.1592 -0.0958  0.4689
 1661SOL    HW2 5833   2.095   2.041   3.874 -1.5827 -0.0042 -1.5666
 1661SOL     MW 5834   2.109   1.957   3.854 -0.2518 -0.2141  0.1564
 1662SOL     OW 5835   3.814   2.132   2.752  0.3135 -0.7690 -0.1271
 1662SOL    HW1 5836   3.788   2.040   2.744 -0.3794 -0.4831 -1.3420
 1662SOL    HW2 5837   3.823   2.162   2.662 -2.7254  1.2379  0.1742
 1662SOL     MW 5838   3.812   2.124   2.740 -0.1640 -0.4754 -0.2439
 1663SOL     OW 5839   4.424   3.599   3.627 -0.5343 -0.0197  0.5914
 1663SOL    HW1 5840   4.497   3.541   3.646 -1.0962 -1.4270 -1.4091
 1663SOL    HW2 5841   4.409   3.646   3.709 -0.3643 -3.0111  2.3981
 1663SOL     MW 5842   4.431   3.598   3.640 -0.5841 -0.5827  0.5665
 1664SOL     OW 5843   0.224   3.533   4.936  0.2195 -0.0815  0.3299
 1664SOL    HW1 5844   0.258   3.451   4.972 -0.9093  0.6432  3.2046
 1664SOL    HW2 5845   0.138   3.544   4.977 -0.8882  1.1290 -2.2085
 1664SOL     MW 5846   0.218   3.524   4.946 -0.0668  0.1662  0.3729
 1665SOL     OW 5847   4.057   4.270   3.597 -0.1459 -0.1566  0.5046
 1665SOL    HW1 5848   3.999   4.237   3.528  1.5566 -0.1635 -0.9835
 1665SOL    HW2 5849   4.086   4.192   3.644  1.7615 -0.5968 -1.3068
 1665SOL     MW 5850   4.054   4.256   3.594  0.3161 -0.2141  0.0820
 1666SOL     OW 5851   5.817   5.769   3.566  0.0158 -0.3760  0.4243
 1666SOL    HW1 5852   5.874   5.822   3.511 -0.6419 -1.3867 -1.2620
 1666SOL    HW2 5853   5.874   5.698   3.597  0.7214  0.8903  2.1492
 1666SOL     MW 5854   5.832   5.766   3.563  0.0224 -0.3433  0.4289
 1667SOL     OW 5855   0.741   3.802   3.538  0.7335  0.2816  0.0406
 1667SOL    HW1 5856   0.788   3.727   3.575  1.8642  0.5095 -0.9072
 1667SOL    HW2 5857   0.655   3.767   3.514 -0.2653  0.2686  3.3987
 1667SOL     MW 5858   0.736   3.788   3.539  0.7504  0.3090  0.3493
 1668SOL     OW 5859   0.814   3.470   3.122 -0.0017 -0.2130  0.0818
 1668SOL    HW1 5860   0.730   3.450   3.081  0.3546 -0.4571 -0.5480
 1668SOL    HW2 5861   0.854   3.384   3.137  0.5607 -0.0599 -0.5362
 1668SOL     MW 5862   0.808   3.456   3.119  0.1159 -0.2248 -0.0780
 1669SOL     OW 5863   0.070   5.323   0.860 -0.1142  0.1860 -0.6718
 1669SOL    HW1 5864   0.130   5.249   0.867 -0.2282 -0.0499 -2.1819
 1669SOL    HW2 5865   0.122   5.399   0.888  0.9330  0.0027 -2.0841
 1669SOL     MW 5866   0.084   5.323   0.865  0.0052  0.1326 -1.0460
 1670SOL     OW 5867   1.982   5.424   1.303 -0.2089  0.4757 -0.0674
 1670SOL    HW1 5868   1.915   5.416   1.371 -0.0432 -0.6345 -0.0137
 1670SOL    HW2 5869   1.934   5.453   1.226 -0.1623  3.2663  0.8846
 1670SOL     MW 5870   1.967   5.426   1.302 -0.1819  0.6905  0.0614
 1671SOL     OW 5871   3.592   1.572   2.973  0.5023 -0.0646 -0.1690
 1671SOL    HW1 5872   3.539   1.611   2.904  0.5622  1.9809  0.8963
 1671SOL    HW2 5873   3.536   1.579   3.051  0.2383 -2.7677 -0.0690
 1671SOL     MW 5874   3.578   1.578   2.974  0.4764 -0.1489 -0.0198
 1672SOL     OW 5875   1.628   1.429   0.275  0.1029  0.3595  0.3282
 1672SOL    HW1 5876   1.646   1.341   0.242 -1.8674  0.0789 -0.0461
 1672SOL    HW2 5877   1.713   1.461   0.304  0.6424 -2.1303  1.6123
 1672SOL     MW 5878   1.641   1.422   0.274 -0.0803  0.0048  0.4446
 1673SOL     OW 5879   1.992   1.406   5.347  0.0615  0.1638  0.0556
 1673SOL    HW1 5880   2.080   1.384   5.379  0.2934  0.5665 -0.3003
 1673SOL    HW2 5881   2.002   1.417   5.253 -1.0267 -2.9524 -0.4598
 1673SOL     MW 5882   2.005   1.405   5.339 -0.0484 -0.1837 -0.0558
 1674SOL     OW 5883   4.619   4.460   3.627 -0.2589  0.0403 -0.4227
 1674SOL    HW1 5884   4.561   4.448   3.551 -1.2864  0.3821  0.2984
 1674SOL    HW2 5885   4.705   4.434   3.595 -0.6288  0.4154 -1.7904
 1674SOL     MW 5886   4.622   4.455   3.613 -0.4382  0.1321 -0.5054
 1675SOL     OW 5887   3.826   1.442   3.906  0.1186  0.4185 -0.2711
 1675SOL    HW1 5888   3.896   1.445   3.840 -1.6545 -0.2936 -2.2432
 1675SOL    HW2 5889   3.760   1.383   3.868 -0.7160 -0.4317  2.3853
 1675SOL     MW 5890   3.827   1.434   3.892 -0.2153  0.2185 -0.1831
 1676SOL     OW 5891   0.430   5.805   0.232  0.4395 -0.2268 -0.4847
 1676SOL    HW1 5892   0.389   5.724   0.261 -1.0408  1.2610  1.8678
 1676SOL    HW2 5893   0.523   5.792   0.246  0.2556 -1.6614 -0.5302
 1676SOL     MW 5894   0.437   5.793   0.237  0.2264 -0.2203 -0.1894
 1677SOL     OW 5895   3.734   0.894   2.706 -0.8233  0.4708 -0.2085
 1677SOL    HW1 5896   3.741   0.874   2.612  0.8337  2.3298 -0.5168
 1677SOL    HW2 5897   3.774   0.819   2.749  0.6881  0.7408 -1.1139
 1677SOL     MW 5898   3.740   0.882   2.699 -0.4177  0.7433 -0.3641
 1678SOL     OW 5899   2.251   1.340   5.415 -0.0647  0.4915  0.6084
 1678SOL    HW1 5900   2.284   1.386   5.492 -2.4744  2.5581  0.4617
 1678SOL    HW2 5901   2.318   1.354   5.348  1.8649 -1.0047  2.1770
 1678SOL     MW 5902   2.264   1.348   5.416 -0.1264  0.5646  0.7901
 1679SOL     OW 5903   0.367   1.452   1.209  0.0190 -0.1948  0.2732
 1679SOL    HW1 5904   0.430   1.516   1.240  1.9948 -1.7113 -0.5091
 1679SOL    HW2 5905   0.296   1.455   1.273  1.3889  0.7598  1.7773
 1679SOL     MW 5906   0.366   1.461   1.221  0.4473 -0.2668  0.3656
 1680SOL     OW 5907   0.154   3.464   2.041  0.0674  0.0017 -0.1365
 1680SOL    HW1 5908   0.200   3.514   2.108 -0.9478  0.7336  0.0422
 1680SOL    HW2 5909   0.177   3.508   1.958  2.2685 -1.6292 -0.4209
 1680SOL     MW 5910   0.163   3.476   2.039  0.2192 -0.1135 -0.1500
 1681SOL     OW 5911   2.973   1.969   2.610 -0.1208 -0.2454  0.1622
 1681SOL    HW1 5912   2.909   1.918   2.660 -0.4303 -0.7258 -0.7184
 1681SOL    HW2 5913   3.030   2.007   2.677  1.0278 -2.9503  0.7669
 1681SOL     MW 5914   2.972   1.967   2.625 -0.0134 -0.6531  0.1266
 1682SOL     OW 5915   2.251   1.412   4.387 -0.2050 -0.1751  0.3818
 1682SOL    HW1 5916   2.162   1.417   4.425 -0.7441  0.3636 -0.9362
 1682SOL    HW2 5917   2.244   1.459   4.304  1.8111  1.5710  1.1622
 1682SOL     MW 5918   2.238   1.419   4.382 -0.0160  0.1174  0.3133
 1683SOL     OW 5919   2.658   4.934   5.467 -0.4061  0.3415  0.6704
 1683SOL    HW1 5920   2.630   4.898   5.383  2.7597  0.5855 -0.5561
 1683SOL    HW2 5921   2.654   4.860   5.527 -1.3291 -0.1818 -0.0225
 1683SOL     MW 5922   2.654   4.920   5.464 -0.1190  0.3057  0.4249
 1684SOL     OW 5923   0.369   3.076   3.638  0.5686 -0.1104 -0.0487
 1684SOL    HW1 5924   0.299   3.054   3.577 -0.5844 -0.5136  1.3717
 1684SOL    HW2 5925   0.368   3.172   3.643 -0.2942 -0.1411  0.4258
 1684SOL     MW 5926   0.360   3.086   3.631  0.3106 -0.1659  0.1941
 1685SOL     OW 5927   3.304   0.448   1.319  0.4041  0.4157  0.0936
 1685SOL    HW1 5928   3.393   0.470   1.344  0.9285 -1.6472  0.1311
 1685SOL    HW2 5929   3.287   0.365   1.363 -0.3875 -0.8233 -2.4931
 1685SOL     MW 5930   3.313   0.440   1.328  0.3698 -0.0070 -0.2327
 1686SOL     OW 5931   4.885   5.090   0.762 -0.2133 -0.1922 -0.0143
 1686SOL    HW1 5932   4.912   5.009   0.807 -0.3873  0.6251  1.5909
 1686SOL    HW2 5933   4.890   5.157   0.830 -0.8943  0.9972 -1.1380
 1686SOL     MW 5934   4.889   5.088   0.776 -0.3228  0.0648  0.0474
 1687SOL     OW 5935   1.337   4.378   0.708  0.0786 -0.2543  0.0502
 1687SOL    HW1 5936   1.294   4.303   0.748 -0.1981 -0.4194 -0.5581
 1687SOL    HW2 5937   1.318   4.371   0.615  0.9110  0.0015 -0.1486
 1687SOL     MW 5938   1.329   4.368   0.701  0.1497 -0.2427 -0.0531
 1688SOL     OW 5939   4.041   2.911   4.901 -0.7354  0.7537 -0.6485
 1688SOL    HW1 5940   4.020   2.841   4.963 -0.8458  0.0940 -1.4235
 1688SOL    HW2 5941   3.980   2.898   4.828 -0.7048  1.6112 -0.8300
 1688SOL     MW 5942   4.031   2.900   4.899 -0.7458  0.7792 -0.7710
 1689SOL     OW 5943   0.206   1.567   3.873 -0.3008  0.0831 -0.1531
 1689SOL    HW1 5944   0.231   1.540   3.784 -1.5646 -1.8259  0.0365
 1689SOL    HW2 5945   0.127   1.619   3.861 -1.1380 -1.1460 -0.0806
 1689SOL     MW 5946   0.199   1.570   3.860 -0.5697 -0.3186 -0.1197
 1690SOL     OW 5947   5.796   3.452   2.414 -0.1884 -0.5818 -0.1704
 1690SOL    HW1 5948   5.769   3.488   2.499  0.8950 -0.8321  0.2947
 1690SOL    HW2 5949   5.746   3.370   2.406  0.4177 -1.0529  0.6890
 1690SOL     MW 5950   5.786   3.446   2.424  0.0281 -0.6742 -0.0007
 1691SOL     OW 5951   1.667   0.113   1.445 -0.9191  0.1524  0.3896
 1691SOL    HW1 5952   1.706   0.197   1.471  0.9927 -0.1768 -1.2524
 1691SOL    HW2 5953   1.605   0.136   1.376 -0.1826  0.1986 -0.2640
 1691SOL     MW 5954   1.664   0.127   1.439 -0.5801  0.1162  0.0958
 1692SOL     OW 5955   0.287   2.544   3.016  0.2554  0.3885  0.0233
 1692SOL    HW1 5956   0.383   2.549   3.019  0.3942 -2.0161  0.4695
 1692SOL    HW2 5957   0.268   2.453   2.994 -1.9494  0.7995  0.0780
 1692SOL     MW 5958   0.297   2.533   3.013 -0.0090  0.1335  0.0877
 1693SOL     OW 5959   5.418   3.586   0.824 -0.5002  0.5611  0.2328
 1693SOL    HW1 5960   5.463   3.501   0.822 -0.6594  0.4899 -0.6046
 1693SOL    HW2 5961   5.359   3.583   0.749 -2.9060  0.1209  2.0505
 1693SOL     MW 5962   5.416   3.575   0.814 -0.8287  0.4954  0.3583
 1694SOL     OW 5963   0.528   1.722   3.211 -0.2826  0.0749  0.5699
 1694SOL    HW1 5964   0.599   1.678   3.256 -0.8435 -0.0145  1.3805
 1694SOL    HW2 5965   0.570   1.795   3.165  0.7154 -1.6133 -1.2233
 1694SOL     MW 5966   0.542   1.726   3.211 -0.2266 -0.1526  0.4439
 1695SOL     OW 5967   0.669   1.306   2.060 -0.0820 -0.4868  0.2074
 1695SOL    HW1 5968   0.600   1.245   2.088 -0.4719  0.8213  2.1610
 1695SOL    HW2 5969   0.732   1.250   2.014 -1.6180 -1.9676 -0.1672
 1695SOL     MW 5970   0.668   1.291   2.057 -0.3285 -0.5089  0.4096
 1696SOL     OW 5971   1.419   4.374   2.257  0.3141  0.0129  0.6752
 1696SOL    HW1 5972   1.463   4.434   2.317  1.6062  0.7000 -0.9165
 1696SOL    HW2 5973   1.374   4.312   2.314 -0.8852  2.3391  2.3614
 1696SOL     MW 5974   1.419   4.374   2.272  0.3260  0.3982  0.6871
 1697SOL     OW 5975   5.193   0.176   3.419 -0.2594 -0.9950  0.2766
 1697SOL    HW1 5976   5.269   0.132   3.381  1.0551  2.3316 -1.1359
 1697SOL    HW2 5977   5.204   0.163   3.514  1.3500 -1.7034  0.0240
 1697SOL     MW 5978   5.204   0.168   3.426  0.1154 -0.6598  0.0632
 1698SOL     OW 5979   3.768   1.350   2.938 -0.1316 -0.3944 -0.4178
 1698SOL    HW1 5980   3.775   1.356   3.033  0.9525 -0.9941 -0.4613
 1698SOL    HW2 5981   3.713   1.425   2.914  0.2949  0.2612  0.5981
 1698SOL     MW 5982   3.762   1.360   2.947  0.0618 -0.3873 -0.2935
 1699SOL     OW 5983   0.401   1.733   4.256 -0.0093  0.7416 -0.4448
 1699SOL    HW1 5984   0.413   1.757   4.347 -1.0603 -3.0433  0.8159
 1699SOL    HW2 5985   0.308   1.751   4.239 -0.7434 -1.8726  0.4365
 1699SOL     MW 5986   0.390   1.738   4.265 -0.2378 -0.0774 -0.1707
 1700SOL     OW 5987   5.222   4.775   2.942 -0.3060  0.4193  0.2246
 1700SOL    HW1 5988   5.299   4.826   2.968 -0.0683 -0.4202  1.2212
 1700SOL    HW2 5989   5.190   4.818   2.863  0.8009  1.1752  0.1752
 1700SOL     MW 5990   5.228   4.787   2.935 -0.1345  0.4086  0.3457
 1701SOL     OW 5991   2.568   1.986   1.815 -0.1796  0.0484  0.2494
 1701SOL    HW1 5992   2.552   1.892   1.822  2.0622 -0.3421  0.4806
 1701SOL    HW2 5993   2.640   1.993   1.753  0.0754  1.5918  0.7035
 1701SOL     MW 5994   2.575   1.975   1.808  0.1402  0.1961  0.3372
 1702SOL     OW 5995   0.965   4.626   0.889  0.2820  0.3460  0.0080
 1702SOL    HW1 5996   0.964   4.649   0.982 -0.0701  0.4072 -0.0099
 1702SOL    HW2 5997   1.057   4.630   0.865  0.6666 -2.1003  0.9410
 1702SOL     MW 5998   0.977   4.630   0.898  0.2862  0.0405  0.1252
 1703SOL     OW 5999   4.211   0.115   3.488 -0.5409  0.4009 -0.4672
 1703SOL    HW1 6000   4.265   0.117   3.409 -0.9787 -0.5271 -0.7955
 1703SOL    HW2 6001   4.184   0.023   3.497  0.1271  0.3378  1.1896
 1703SOL     MW 6002   4.215   0.103   3.479 -0.5112  0.2740 -0.2971
 1704SOL     OW 6003   3.575   5.842   5.214  0.0101 -0.4240 -0.5163
 1704SOL    HW1 6004   3.529   5.912   5.169  0.7714  0.0809 -0.5167
 1704SOL    HW2 6005   3.590   5.875   5.303  2.1695  0.2457 -1.0990
 1704SOL     MW 6006   3.571   5.855   5.220  0.3839 -0.2732 -0.5908
 1705SOL     OW 6007   0.056   3.722   3.929  0.0967 -0.0387 -0.5186
 1705SOL    HW1 6008   0.055   3.692   4.020  0.9549 -0.4819 -0.6435
 1705SOL    HW2 6009  -0.027   3.692   3.893 -1.4079  2.3969  0.8167
 1705SOL     MW 6010   0.045   3.714   3.936  0.0140  0.2162 -0.3636
 1706SOL     OW 6011   0.211   0.349   0.623  0.2675  0.1518 -0.4318
 1706SOL    HW1 6012   0.266   0.400   0.683 -0.7530 -0.5156  1.0919
 1706SOL    HW2 6013   0.128   0.339   0.669  0.4773 -2.9915 -0.6383
 1706SOL     MW 6014   0.208   0.354   0.637  0.1637 -0.3360 -0.2632
 1707SOL     OW 6015   5.977   5.686   1.839  0.2753  0.1861 -0.2384
 1707SOL    HW1 6016   6.040   5.749   1.804  1.3506 -1.2214 -0.8885
 1707SOL    HW2 6017   5.988   5.608   1.784  0.9324 -1.5563  2.2591
 1707SOL     MW 6018   5.987   5.684   1.828  0.4964 -0.2170 -0.0019
 1708SOL     OW 6019   3.659   3.478   3.524 -0.1113 -0.2773 -0.0401
 1708SOL    HW1 6020   3.696   3.542   3.462  0.2240  0.0768  0.5249
 1708SOL    HW2 6021   3.674   3.393   3.482 -0.0392 -0.0270 -0.5284
 1708SOL     MW 6022   3.666   3.475   3.511 -0.0589 -0.2000 -0.0303
 1709SOL     OW 6023   2.239   0.858   3.308  0.4863  0.6639 -0.6116
 1709SOL    HW1 6024   2.288   0.787   3.351  1.5670 -0.7718 -4.0269
 1709SOL    HW2 6025   2.152   0.854   3.348  0.9923 -1.6023  0.3841
 1709SOL     MW 6026   2.234   0.848   3.319  0.6893  0.1901 -0.9212
 1710SOL     OW 6027   3.102   1.742   2.135  0.5543 -0.2570  0.1434
 1710SOL    HW1 6028   3.129   1.833   2.124  0.1554 -0.2419 -0.7680
 1710SOL    HW2 6029   3.162   1.692   2.079 -0.0812 -0.4121 -0.4110
 1710SOL     MW 6030   3.113   1.747   2.127  0.4215 -0.2750 -0.0446
 1711SOL     OW 6031   2.557   5.864   5.162 -0.4607  0.7552 -0.0443
 1711SOL    HW1 6032   2.599   5.894   5.243 -0.7089  1.9431 -0.3464
 1711SOL    HW2 6033   2.475   5.915   5.158 -0.9425 -0.0496 -0.5074
 1711SOL     MW 6034   2.552   5.875   5.172 -0.5541  0.8039 -0.1426
 1712SOL     OW 6035   3.004   0.850   4.794  0.3913  0.4070  0.6055
 1712SOL    HW1 6036   3.016   0.906   4.717  0.6788  0.5876  0.7814
 1712SOL    HW2 6037   2.995   0.762   4.758  3.7281  0.0291  0.5348
 1712SOL     MW 6038   3.004   0.846   4.779  0.8550  0.3818  0.6194
 1713SOL     OW 6039   3.130   0.649   1.374 -0.3221  0.4258 -0.2396
 1713SOL    HW1 6040   3.119   0.709   1.300  0.9459 -0.4754 -1.1765
 1713SOL    HW2 6041   3.196   0.586   1.345 -0.0228 -0.1270  1.5512
 1713SOL     MW 6042   3.137   0.649   1.361 -0.1214  0.2397 -0.1303
 1714SOL     OW 6043   3.046   5.230   3.333  0.3713  0.0073 -0.4502
 1714SOL    HW1 6044   3.140   5.221   3.320  0.1877  1.3537 -3.0115
 1714SOL    HW2 6045   3.027   5.174   3.408  3.2721  0.0723  0.3903
 1714SOL     MW 6046   3.056   5.222   3.341  0.7193  0.1879 -0.6704
 1715SOL     OW 6047   0.812   5.883   4.973  0.2642  0.0151 -0.2486
 1715SOL    HW1 6048   0.812   5.863   5.067 -1.2172  1.1757  0.0144
 1715SOL    HW2 6049   0.882   5.946   4.961 -0.4917  0.9947  0.3548
 1715SOL     MW 6050   0.821   5.888   4.984 -0.0222  0.2890 -0.1378
 1716SOL     OW 6051   0.553   3.466   1.082  0.0994  0.2237 -0.3958
 1716SOL    HW1 6052   0.566   3.555   1.116  0.8358  1.0886 -2.8630
 1716SOL    HW2 6053   0.503   3.422   1.151 -1.7597  3.0518  0.1459
 1716SOL     MW 6054   0.548   3.472   1.095 -0.0443  0.6962 -0.6422
 1717SOL     OW 6055   4.829   0.894   1.115  0.1983  0.3721  0.4680
 1717SOL    HW1 6056   4.904   0.851   1.155  1.0783  0.0287 -1.5250
 1717SOL    HW2 6057   4.866   0.969   1.069 -0.5749 -0.1395 -1.0234
 1717SOL     MW 6058   4.843   0.898   1.114  0.2117  0.2627  0.0219
 1718SOL     OW 6059   3.204   4.099   0.852  0.6218 -0.1898 -0.1953
 1718SOL    HW1 6060   3.245   4.165   0.797 -0.0180  0.2890 -0.1042
 1718SOL    HW2 6061   3.191   4.142   0.936 -1.5927  0.2267 -0.7183
 1718SOL     MW 6062   3.207   4.113   0.856  0.2563 -0.0749 -0.2506
 1719SOL     OW 6063   4.064   5.064   0.270 -0.0189  0.1890  0.5669
 1719SOL    HW1 6064   4.001   5.134   0.254  1.2294  1.2283  0.0790
 1719SOL    HW2 6065   4.012   4.994   0.309 -1.3401  1.2992  0.8678
 1719SOL     MW 6066   4.049   5.064   0.273 -0.0286  0.4640  0.5429
 1720SOL     OW 6067   3.636   5.405   5.570  0.0324 -0.2289  0.1359
 1720SOL    HW1 6068   3.578   5.332   5.546 -1.1487  0.8209 -0.2371
 1720SOL    HW2 6069   3.698   5.411   5.497 -1.8481  1.1778 -1.3721
 1720SOL     MW 6070   3.637   5.396   5.558 -0.3595  0.0858 -0.1049
 1721SOL     OW 6071   1.013   3.910   5.786  0.0380  0.7868  0.2284
 1721SOL    HW1 6072   1.082   3.851   5.754 -0.2492  0.2848  0.5287
 1721SOL    HW2 6073   1.017   3.902   5.881  0.5648  1.9055  0.3107
 1721SOL     MW 6074   1.023   3.901   5.794  0.0688  0.8657  0.2774
 1722SOL     OW 6075   0.451   1.519   3.673 -0.6306 -0.3236 -0.1918
 1722SOL    HW1 6076   0.485   1.432   3.694 -0.6221 -0.4273 -0.6206
 1722SOL    HW2 6077   0.401   1.506   3.593 -0.3619  0.1256 -0.4370
 1722SOL     MW 6078   0.449   1.506   3.665 -0.5952 -0.2792 -0.2782
 1723SOL     OW 6079   2.934   5.056   5.797 -0.0068  0.1943  0.3400
 1723SOL    HW1 6080   2.999   5.126   5.809  0.4971 -0.1775 -0.2392
 1723SOL    HW2 6081   2.938   5.006   5.879  2.1921 -1.2899 -0.6333
 1723SOL     MW 6082   2.943   5.059   5.809  0.3393 -0.0434  0.1407
 1724SOL     OW 6083   2.697   3.307   3.850 -0.1983 -0.0478  0.0519
 1724SOL    HW1 6084   2.775   3.271   3.893  0.0532  0.8373  0.3400
 1724SOL    HW2 6085   2.731   3.365   3.783 -0.6125  0.0408 -0.0808
 1724SOL     MW 6086   2.712   3.310   3.847 -0.2191  0.0768  0.0718
 1725SOL     OW 6087   3.588   3.983   2.734  0.0019 -0.3952 -0.2807
 1725SOL    HW1 6088   3.666   3.994   2.679  0.7898 -1.7335  0.5266
 1725SOL    HW2 6089   3.587   4.061   2.790  0.7714 -0.3624 -0.3032
 1725SOL     MW 6090   3.598   3.995   2.734  0.2012 -0.5620 -0.1805
 1726SOL     OW 6091   3.658   3.863   5.149  0.3208  0.0578  0.6362
 1726SOL    HW1 6092   3.669   3.842   5.056 -2.3284 -2.5832  0.8060
 1726SOL    HW2 6093   3.746   3.859   5.185  1.2031 -0.5195 -1.4729
 1726SOL     MW 6094   3.671   3.860   5.142  0.0949 -0.3543  0.3881
 1727SOL     OW 6095   0.577   3.066   0.245 -0.6263 -0.0519  0.4147
 1727SOL    HW1 6096   0.556   3.055   0.152  0.9621 -2.5512  0.3039
 1727SOL    HW2 6097   0.568   3.160   0.260 -0.7071  0.4309 -2.3198
 1727SOL     MW 6098   0.573   3.077   0.235 -0.4333 -0.3099  0.0505
 1728SOL     OW 6099   2.276   3.438   4.321  0.0189  0.0481 -0.0916
 1728SOL    HW1 6100   2.290   3.366   4.383  3.2845  1.1185  0.5278
 1728SOL    HW2 6101   2.210   3.494   4.364 -0.3367 -1.0191  0.7866
 1728SOL     MW 6102   2.269   3.436   4.335  0.3915  0.0486  0.1001
 1729SOL     OW 6103   5.219   0.570   2.816  0.3143 -0.1247 -0.9086
 1729SOL    HW1 6104   5.196   0.543   2.905  2.0803 -0.4848 -0.5347
 1729SOL    HW2 6105   5.150   0.533   2.761  0.4169 -1.8100  0.0626
 1729SOL     MW 6106   5.207   0.562   2.821  0.5536 -0.3865 -0.7365
 1730SOL     OW 6107   1.082   1.920   5.555 -0.0785 -0.1818  0.3405
 1730SOL    HW1 6108   0.996   1.922   5.597 -0.7172  0.1371 -0.9554
 1730SOL    HW2 6109   1.112   1.830   5.566 -0.7382 -0.3843  0.4861
 1730SOL     MW 6110   1.075   1.909   5.561 -0.2447 -0.1668  0.1931
 1731SOL     OW 6111   0.718   0.075   1.524  0.1934 -0.3032  0.1792
 1731SOL    HW1 6112   0.661   0.003   1.549  1.3945 -1.0157  0.9157
 1731SOL    HW2 6113   0.706   0.140   1.594  2.2306 -1.5590  1.7465
 1731SOL     MW 6114   0.709   0.074   1.536  0.6079 -0.5551  0.4741
 1732SOL     OW 6115   5.939   5.422   3.158 -0.6180  0.4581 -0.1807
 1732SOL    HW1 6116   6.011   5.363   3.182 -2.6530 -2.3825 -0.8275
 1732SOL    HW2 6117   5.981   5.491   3.107  1.6596 -1.1214 -0.5183
 1732SOL     MW 6118   5.954   5.423   3.155 -0.5870 -0.1078 -0.3066
 1733SOL     OW 6119   1.568   4.059   2.338  0.6762 -0.1031  0.0829
 1733SOL    HW1 6120   1.604   4.087   2.422  1.3632  2.1225 -0.9172
 1733SOL    HW2 6121   1.588   3.966   2.333 -0.2136 -0.4696  2.7894
 1733SOL     MW 6122   1.575   4.051   2.348  0.6502  0.1349  0.3014
 1734SOL     OW 6123   1.026   4.814   4.721 -0.0276  0.3329 -0.0948
 1734SOL    HW1 6124   1.059   4.903   4.710 -1.1925  0.8267  0.2752
 1734SOL    HW2 6125   0.933   4.826   4.740 -0.1173 -0.9536  0.2905
 1734SOL     MW 6126   1.018   4.827   4.722 -0.1882  0.2313  0.0019
 1735SOL     OW 6127   2.669   2.672   4.573  0.2598  0.3210 -0.2106
 1735SOL    HW1 6128   2.627   2.748   4.613 -0.4042 -0.2815  0.2673
 1735SOL    HW2 6129   2.662   2.687   4.479 -3.5428 -1.0501 -0.2386
 1735SOL     MW 6130   2.663   2.683   4.566 -0.3121  0.0682 -0.1531
 1736SOL     OW 6131   2.606   0.458   1.586  0.0134 -0.2439  0.5250
 1736SOL    HW1 6132   2.680   0.400   1.568 -1.4323 -1.8941 -0.3137
 1736SOL    HW2 6133   2.574   0.483   1.499  0.4876  1.6533  0.8883
 1736SOL     MW 6134   2.611   0.454   1.573 -0.1109 -0.2123  0.4641
 1737SOL     OW 6135   1.861   4.704   5.080 -0.6313 -0.1742 -0.0992
 1737SOL    HW1 6136   1.812   4.668   5.006  1.4878 -1.1828 -1.0491
 1737SOL    HW2 6137   1.873   4.630   5.140  1.1155 -0.3553 -0.6424
 1737SOL     MW 6138   1.857   4.690   5.079 -0.1365 -0.3262 -0.2904
 1738SOL     OW 6139   4.485   2.499   4.779  0.6100 -0.0135  0.5821
 1738SOL    HW1 6140   4.400   2.542   4.782  1.3169  1.3683  1.3019
 1738SOL    HW2 6141   4.475   2.421   4.833 -0.4401 -0.3128 -0.0305
 1738SOL     MW 6142   4.473   2.495   4.786  0.5660  0.1252  0.5960
 1739SOL     OW 6143   5.992   1.067   1.352  0.3566  0.8052  0.2985
 1739SOL    HW1 6144   5.914   1.105   1.310  1.0397  1.4830 -0.3664
 1739SOL    HW2 6145   5.963   1.046   1.441 -0.6091  0.9970  0.0332
 1739SOL     MW 6146   5.978   1.069   1.358  0.3209  0.9166  0.1793
 1740SOL     OW 6147   3.853   5.815   2.279  0.2489  0.1448  0.3637
 1740SOL    HW1 6148   3.760   5.840   2.279 -0.3033 -1.7657 -0.5911
 1740SOL    HW2 6149   3.859   5.746   2.345  0.1346 -2.5333 -2.3033
 1740SOL     MW 6150   3.842   5.809   2.287  0.1638 -0.4420 -0.0999
 1741SOL     OW 6151   1.724   0.623   3.808 -0.1943 -0.3729  0.1718
 1741SOL    HW1 6152   1.652   0.645   3.867  2.6194  2.4935  2.7047
 1741SOL    HW2 6153   1.694   0.653   3.722 -2.6783 -0.7745  0.8595
 1741SOL     MW 6154   1.711   0.630   3.804 -0.1520 -0.0574  0.5839
 1742SOL     OW 6155   5.813   3.922   4.905  0.5427 -0.0813  0.3275
 1742SOL    HW1 6156   5.843   3.903   4.817  0.5706  0.5735  0.1914
 1742SOL    HW2 6157   5.741   3.984   4.893 -0.1556 -0.7990  0.7074
 1742SOL     MW 6158   5.808   3.928   4.892  0.4568 -0.0894  0.3586
 1743SOL     OW 6159   3.897   3.754   5.722 -0.3520 -0.2888  0.2877
 1743SOL    HW1 6160   3.887   3.659   5.716 -0.3253 -0.2581 -0.3147
 1743SOL    HW2 6161   3.808   3.788   5.715 -0.2402 -0.2107 -0.8834
 1743SOL     MW 6162   3.885   3.746   5.720 -0.3343 -0.2747  0.0606
 1744SOL     OW 6163   4.287   4.936   4.421  0.2517  0.2408 -0.7112
 1744SOL    HW1 6164   4.197   4.936   4.389  0.0939 -0.2877 -0.2863
 1744SOL    HW2 6165   4.340   4.966   4.347 -0.5542  3.1967 -0.1343
 1744SOL     MW 6166   4.283   4.940   4.408  0.1287  0.5517 -0.5827
 1745SOL     OW 6167   4.881   4.460   3.516 -0.1559 -0.5834 -0.4532
 1745SOL    HW1 6168   4.956   4.474   3.573 -0.3845  0.7930 -0.4847
 1745SOL    HW2 6169   4.877   4.538   3.461 -3.6830  1.0295  1.8926
 1745SOL     MW 6170   4.890   4.471   3.516 -0.6371 -0.2007 -0.1569
 1746SOL     OW 6171   1.009   2.501   0.870  0.2677 -0.2868 -0.0075
 1746SOL    HW1 6172   1.093   2.456   0.885  0.5849 -0.0250 -0.9645
 1746SOL    HW2 6173   1.003   2.509   0.775 -1.9157 -2.3088 -0.0835
 1746SOL     MW 6174   1.019   2.496   0.860  0.0287 -0.5121 -0.1397
 1747SOL     OW 6175   0.920   3.584   0.478  0.2978 -0.4870  0.3388
 1747SOL    HW1 6176   0.840   3.544   0.511 -0.3644 -1.4298 -2.2538
 1747SOL    HW2 6177   0.912   3.677   0.500 -1.0785 -0.7372  0.9134
 1747SOL     MW 6178   0.909   3.591   0.485  0.0368 -0.6399  0.0804
 1748SOL     OW 6179   2.276   4.700   1.015 -0.5167 -0.1272  0.2267
 1748SOL    HW1 6180   2.345   4.649   0.974 -0.0966  0.2771  0.4190
 1748SOL    HW2 6181   2.197   4.680   0.965 -0.3792 -1.0430  0.3756
 1748SOL     MW 6182   2.275   4.691   1.004 -0.4454 -0.1931  0.2702
 1749SOL     OW 6183   0.329   3.750   0.016 -0.2737  0.2097 -0.3611
 1749SOL    HW1 6184   0.278   3.711  -0.055  0.6905 -0.4783 -0.6944
 1749SOL    HW2 6185   0.407   3.785  -0.027 -0.5173  1.3796  0.1206
 1749SOL     MW 6186   0.332   3.750   0.001 -0.1814  0.2713 -0.3421
 1750SOL     OW 6187   0.861   5.203   5.276 -0.5080 -0.3716  0.4602
 1750SOL    HW1 6188   0.870   5.174   5.367 -0.5261 -0.0065  0.5802
 1750SOL    HW2 6189   0.930   5.155   5.229  0.1517  0.1855  0.8454
 1750SOL     MW 6190   0.871   5.193   5.282 -0.4258 -0.2537  0.5255
 1751SOL     OW 6191   5.625   1.035   2.521 -0.0848  0.2905 -0.0091
 1751SOL    HW1 6192   5.708   0.988   2.519 -0.7191 -0.8485  0.0730
 1751SOL    HW2 6193   5.558   0.967   2.516 -1.0088  1.2718 -1.4840
 1751SOL     MW 6194   5.627   1.020   2.520 -0.2847  0.2702 -0.1874
 1752SOL     OW 6195   0.602   5.435   4.114  0.6912  0.2234 -0.0245
 1752SOL    HW1 6196   0.547   5.362   4.085  1.9811 -0.8296  0.1052
 1752SOL    HW2 6197   0.650   5.400   4.189  1.6607  1.0550 -0.2383
 1752SOL     MW 6198   0.601   5.421   4.120  0.9805  0.1950 -0.0348
 1753SOL     OW 6199   2.653   0.511   1.999 -0.0536 -0.3736  0.8356
 1753SOL    HW1 6200   2.587   0.476   1.939  0.3314 -0.0498  0.2237
 1753SOL    HW2 6201   2.735   0.506   1.950 -0.1888  2.6889  0.1914
 1753SOL     MW 6202   2.655   0.506   1.985 -0.0215  0.0598  0.6748
 1754SOL     OW 6203   3.233   5.610   5.791  0.4455  0.0760  0.0036
 1754SOL    HW1 6204   3.184   5.545   5.741  0.7218  0.4377 -0.7418
 1754SOL    HW2 6205   3.323   5.576   5.793  0.2190 -0.4958  1.2162
 1754SOL     MW 6206   3.238   5.597   5.785  0.4518  0.0496  0.0634
 1755SOL     OW 6207   5.516   5.135   4.765 -0.1285  0.3959 -0.0621
 1755SOL    HW1 6208   5.520   5.098   4.853 -1.2228  0.3501 -0.0220
 1755SOL    HW2 6209   5.480   5.065   4.711 -3.1599  1.6628  0.2000
 1755SOL     MW 6210   5.512   5.121   4.770 -0.6566  0.5522 -0.0238
 1756SOL     OW 6211   2.597   0.845   2.732 -0.5205 -0.3070  0.0399
 1756SOL    HW1 6212   2.505   0.854   2.710 -0.5800 -1.3858 -0.1566
 1756SOL    HW2 6213   2.626   0.766   2.687  0.9394  0.9404 -1.2987
 1756SOL     MW 6214   2.589   0.836   2.724 -0.3412 -0.2854 -0.1569
 1757SOL     OW 6215   4.093   2.580   2.218  0.0181  0.6776  0.6181
 1757SOL    HW1 6216   4.089   2.662   2.169  1.5834  1.6719  2.0760
 1757SOL    HW2 6217   4.026   2.524   2.178 -0.1086  2.1554 -1.3076
 1757SOL     MW 6218   4.084   2.583   2.207  0.2022  0.9940  0.5581
 1758SOL     OW 6219   3.163   5.492   2.048  0.4541 -0.0063 -0.2864
 1758SOL    HW1 6220   3.258   5.479   2.056  0.5633  0.1768 -1.1868
 1758SOL    HW2 6221   3.152   5.536   1.964 -0.5479 -1.3970 -0.9179
 1758SOL     MW 6222   3.174   5.496   2.038  0.3397 -0.1612 -0.4823
 1759SOL     OW 6223   1.641   4.888   0.218 -0.4611 -0.0041  0.0088
 1759SOL    HW1 6224   1.640   4.795   0.193  1.3389  0.0545 -0.4058
 1759SOL    HW2 6225   1.617   4.889   0.310  0.3071 -0.9681  0.2233
 1759SOL     MW 6226   1.638   4.876   0.226 -0.1323 -0.1197 -0.0168
 1760SOL     OW 6227   1.600   2.798   0.543  0.2070 -0.2067  0.3586
 1760SOL    HW1 6228   1.658   2.744   0.596  0.7935  1.4489  1.4653
 1760SOL    HW2 6229   1.514   2.791   0.585  0.5314  0.5888  1.1840
 1760SOL     MW 6230   1.596   2.790   0.555  0.3237  0.1070  0.6059
 1761SOL     OW 6231   3.460   3.867   4.218 -0.7232 -0.2792 -0.3785
 1761SOL    HW1 6232   3.416   3.873   4.303  0.4919  0.6357  0.1950
 1761SOL    HW2 6233   3.519   3.942   4.216  0.3518 -1.1383 -1.4128
 1761SOL     MW 6234   3.462   3.877   4.229 -0.4301 -0.2723 -0.4373
 1762SOL     OW 6235   1.073   3.486   1.630  0.0145  0.0132 -0.7636
 1762SOL    HW1 6236   1.043   3.574   1.611  1.6650  0.4643 -1.4168
 1762SOL    HW2 6237   1.081   3.483   1.725  0.9702  0.9394 -0.7978
 1762SOL     MW 6238   1.070   3.497   1.640  0.3481  0.1895 -0.8514
 1763SOL     OW 6239   2.073   5.166   0.623  0.1225 -0.1080  0.4613
 1763SOL    HW1 6240   2.087   5.141   0.715  0.9651  0.1548  0.4070
 1763SOL    HW2 6241   1.996   5.116   0.596 -2.1325  2.2369  2.2798
 1763SOL     MW 6242   2.065   5.157   0.632 -0.0582  0.2265  0.6871
 1764SOL     OW 6243   0.640   4.646   1.662  0.3170  0.0741  0.1405
 1764SOL    HW1 6244   0.591   4.564   1.671  0.5880 -0.2101 -0.8817
 1764SOL    HW2 6245   0.730   4.618   1.647  0.3214  0.5474 -0.7224
 1764SOL     MW 6246   0.645   4.632   1.661  0.3523  0.0982 -0.1007
 1765SOL     OW 6247   1.106   4.542   2.366  0.6917 -0.3278 -0.3131
 1765SOL    HW1 6248   1.121   4.501   2.452 -0.5298 -0.3749 -0.1104
 1765SOL    HW2 6249   1.192   4.574   2.340  0.9529  0.3070  1.2557
 1765SOL     MW 6250   1.119   4.541   2.374  0.5689 -0.2532 -0.0861
 1766SOL     OW 6251   3.350   0.423   5.769 -0.2608 -0.5756  0.4540
 1766SOL    HW1 6252   3.344   0.504   5.820  1.5095 -0.8561  1.1587
 1766SOL    HW2 6253   3.286   0.364   5.808  0.6001 -0.5537  1.9206
 1766SOL     MW 6254   3.341   0.426   5.781  0.0761 -0.6087  0.7319
 1767SOL     OW 6255   5.268   4.673   3.447  0.1244 -0.1179  0.6082
 1767SOL    HW1 6256   5.246   4.661   3.355  1.5643  0.3126  0.1990
 1767SOL    HW2 6257   5.356   4.637   3.456  0.3503  0.6643  1.6203
 1767SOL     MW 6258   5.276   4.667   3.436  0.3376  0.0372  0.6855
 1768SOL     OW 6259   1.821   3.608   2.740  0.0247  0.2899 -0.2845
 1768SOL    HW1 6260   1.814   3.515   2.764  2.5861  0.1568  0.0856
 1768SOL    HW2 6261   1.859   3.650   2.817  3.6250  0.7255 -2.1602
 1768SOL     MW 6262   1.825   3.601   2.753  0.8135  0.3288 -0.4773
 1769SOL     OW 6263   5.280   4.535   1.755  0.2425  0.4817  0.0890
 1769SOL    HW1 6264   5.286   4.562   1.847 -1.1348 -2.1743  0.9940
 1769SOL    HW2 6265   5.187   4.534   1.736  0.4584 -0.1719 -0.9805
 1769SOL     MW 6266   5.269   4.538   1.764  0.0944  0.0577  0.0678
 1770SOL     OW 6267   1.637   0.485   5.360 -0.2731 -0.6165 -0.3727
 1770SOL    HW1 6268   1.704   0.416   5.359  1.7879  1.3007  0.1638
 1770SOL    HW2 6269   1.580   0.462   5.433  1.0863 -1.1469  0.5453
 1770SOL     MW 6270   1.638   0.473   5.369  0.1647 -0.4390 -0.1864
 1771SOL     OW 6271   4.682   3.784   0.328 -0.2565 -0.1342 -0.0361
 1771SOL    HW1 6272   4.676   3.709   0.269  2.0439 -0.3177 -0.0870
 1771SOL    HW2 6273   4.772   3.780   0.362 -0.5603  1.7896  1.0393
 1771SOL     MW 6274   4.693   3.774   0.325 -0.0014  0.0887  0.0951
 1772SOL     OW 6275   2.745   1.481   5.445 -0.1620 -0.3301 -0.4160
 1772SOL    HW1 6276   2.821   1.463   5.390 -1.4235  0.7722 -2.5815
 1772SOL    HW2 6277   2.698   1.397   5.450 -1.0374  0.0036 -2.6307
 1772SOL     MW 6278   2.748   1.468   5.439 -0.4354 -0.1463 -0.9766
 1773SOL     OW 6279   2.017   3.580   2.533 -0.7200  0.3777 -0.4428
 1773SOL    HW1 6280   2.082   3.536   2.587 -0.8804 -0.1385 -0.6673
 1773SOL    HW2 6281   1.935   3.570   2.580 -0.8162  0.1450 -0.6612
 1773SOL     MW 6282   2.015   3.573   2.546 -0.7527  0.2818 -0.4992
 1774SOL     OW 6283   1.107   0.784   1.497 -0.3753  0.1456 -0.3840
 1774SOL    HW1 6284   1.073   0.873   1.510 -3.1066 -0.8484 -0.2938
 1774SOL    HW2 6285   1.192   0.784   1.540 -1.2853  2.1004  1.5236
 1774SOL     MW 6286   1.113   0.795   1.504 -0.8414  0.2686 -0.1281
 1775SOL     OW 6287   1.594   4.724   5.820 -0.0015  0.6530  0.6971
 1775SOL    HW1 6288   1.689   4.712   5.824 -0.2633 -2.8492 -1.3011
 1775SOL    HW2 6289   1.558   4.644   5.859 -2.1067  1.1677 -0.1172
 1775SOL     MW 6290   1.602   4.712   5.826 -0.3047  0.2704  0.3371
 1776SOL     OW 6291   2.235   2.405   4.775 -0.4158  0.4260 -0.4193
 1776SOL    HW1 6292   2.239   2.454   4.693 -1.2821 -0.6210 -1.0934
 1776SOL    HW2 6293   2.149   2.425   4.811  0.0656  1.1057  0.3976
 1776SOL     MW 6294   2.225   2.414   4.769 -0.4652  0.3788 -0.4010
 1777SOL     OW 6295   5.224   2.058   2.405  0.4522  0.4776 -1.0553
 1777SOL    HW1 6296   5.317   2.083   2.402  0.5376  0.6009  1.4335
 1777SOL    HW2 6297   5.177   2.142   2.404  0.4936  0.5366  0.4848
 1777SOL     MW 6298   5.230   2.072   2.405  0.4687  0.5007 -0.5395
 1778SOL     OW 6299   2.920   2.394   0.276  0.2096  0.4023 -0.3070
 1778SOL    HW1 6300   2.862   2.354   0.340  0.5281 -0.2996 -0.4499
 1778SOL    HW2 6301   2.879   2.478   0.255 -2.8434 -1.6636 -3.2796
 1778SOL     MW 6302   2.908   2.400   0.281 -0.1407  0.0479 -0.7058
 1779SOL     OW 6303   4.960   0.133   0.512 -0.1510  0.5161  0.4234
 1779SOL    HW1 6304   4.926   0.098   0.594  0.1447  0.8589  0.6949
 1779SOL    HW2 6305   4.881   0.159   0.463 -0.2811  1.5153  1.1476
 1779SOL     MW 6306   4.946   0.132   0.516 -0.1302  0.6879  0.5509
 1780SOL     OW 6307   5.761   3.851   5.222  0.0669 -0.1402  0.1423
 1780SOL    HW1 6308   5.788   3.918   5.286 -1.4577  0.2210  0.4300
 1780SOL    HW2 6309   5.785   3.888   5.137  1.6529 -0.4033  0.4486
 1780SOL     MW 6310   5.768   3.865   5.219  0.0749 -0.1276  0.2179
 1781SOL     OW 6311   4.156   3.345   0.101  0.2717 -0.1952 -0.3730
 1781SOL    HW1 6312   4.117   3.402   0.168  2.3866 -0.9284  1.5480
 1781SOL    HW2 6313   4.184   3.267   0.150  2.8354 -0.2966 -1.9090
 1781SOL     MW 6314   4.154   3.342   0.116  0.8707 -0.3018 -0.3237
 1782SOL     OW 6315   1.930   3.957   5.623 -0.0321  0.0411  0.5018
 1782SOL    HW1 6316   1.972   3.989   5.703  0.1859 -0.1426  0.4614
 1782SOL    HW2 6317   1.934   4.032   5.563 -0.2124  0.1842  0.6689
 1782SOL     MW 6318   1.936   3.971   5.625 -0.0272  0.0362  0.5183
 1783SOL     OW 6319   2.099   2.844   5.036  0.0413 -0.1145 -0.2965
 1783SOL    HW1 6320   2.149   2.858   4.956 -0.3738  0.7201 -0.4051
 1783SOL    HW2 6321   2.142   2.899   5.101 -1.7033  1.8601 -0.7714
 1783SOL     MW 6322   2.111   2.853   5.034 -0.2353  0.2451 -0.3710
 1784SOL     OW 6323   5.862   3.653   3.495  0.6456 -0.1655  0.1759
 1784SOL    HW1 6324   5.774   3.686   3.481  0.5397 -0.5012  0.0579
 1784SOL    HW2 6325   5.918   3.731   3.493  0.3417  0.0559  0.3426
 1784SOL     MW 6326   5.858   3.667   3.493  0.5927 -0.1802  0.1822
 1785SOL     OW 6327   2.765   5.067   2.762 -0.0427 -0.7848  0.5420
 1785SOL    HW1 6328   2.815   5.056   2.844 -0.6922 -0.7417  0.9499
 1785SOL    HW2 6329   2.674   5.063   2.790 -0.2651 -1.1714 -0.2456
 1785SOL     MW 6330   2.760   5.065   2.776 -0.1545 -0.8292  0.4933
 1786SOL     OW 6331   2.047   1.178   0.677  0.1532  0.3080  0.5652
 1786SOL    HW1 6332   2.139   1.154   0.682  0.1416 -0.3602 -1.8205
 1786SOL    HW2 6333   2.040   1.230   0.598 -1.7802 -0.8858 -0.0891
 1786SOL     MW 6334   2.057   1.181   0.668 -0.0956  0.0696  0.1761
 1787SOL     OW 6335   0.673   5.747   0.123  0.3955 -0.1898  0.3797
 1787SOL    HW1 6336   0.725   5.824   0.146  1.4135 -1.0284  0.9217
 1787SOL    HW2 6337   0.674   5.744   0.028  1.8882 -0.5757  0.4098
 1787SOL     MW 6338   0.680   5.756   0.114  0.7169 -0.3471  0.4530
 1788SOL     OW 6339   5.547   2.426   2.417 -0.5340  0.5936 -0.2150
 1788SOL    HW1 6340   5.492   2.407   2.492 -1.2037 -0.2324 -0.9060
 1788SOL    HW2 6341   5.614   2.486   2.450 -0.8695  0.2909  1.0110
 1788SOL     MW 6342   5.549   2.431   2.431 -0.6633  0.4492 -0.1466
 1789SOL     OW 6343   2.549   1.029   0.573 -0.7320 -0.2026  0.1770
 1789SOL    HW1 6344   2.574   1.106   0.625  0.5249 -1.1368  0.9699
 1789SOL    HW2 6345   2.465   1.002   0.611  1.1705 -2.1195  3.1471
 1789SOL     MW 6346   2.541   1.036   0.584 -0.3278 -0.5676  0.6587
 1790SOL     OW 6347   0.755   3.903   0.246  0.0977  0.0304  0.1606
 1790SOL    HW1 6348   0.759   3.842   0.172  1.9114  0.2357  0.0782
 1790SOL    HW2 6349   0.791   3.854   0.320 -0.2385  0.3568  0.5411
 1790SOL     MW 6350   0.760   3.889   0.246  0.2868  0.0985  0.1988
 1791SOL     OW 6351   4.963   1.891   4.482 -0.0137 -0.0399 -0.5521
 1791SOL    HW1 6352   4.925   1.931   4.404 -2.0698  0.0102  0.4514
 1791SOL    HW2 6353   5.056   1.881   4.460  0.0843  2.9812 -1.7355
 1791SOL     MW 6354   4.970   1.895   4.469 -0.2646  0.3535 -0.5751
 1792SOL     OW 6355   0.805   3.360   3.904  0.1832  0.6184  0.8359
 1792SOL    HW1 6356   0.773   3.273   3.927  1.4784 -0.1560 -0.1993
 1792SOL    HW2 6357   0.892   3.365   3.944  0.6233  0.9469 -0.1369
 1792SOL     MW 6358   0.812   3.349   3.912  0.4054  0.5612  0.5789
 1793SOL     OW 6359   2.449   3.773   4.501  0.0438  0.0176 -0.1208
 1793SOL    HW1 6360   2.409   3.836   4.562  0.1571  0.5430 -0.5814
 1793SOL    HW2 6361   2.542   3.776   4.522  0.2993  1.3484 -1.3348
 1793SOL     MW 6362   2.455   3.782   4.512  0.0908  0.2553 -0.3352
 1794SOL     OW 6363   2.653   2.192   3.086 -0.3565 -0.3613  0.4214
 1794SOL    HW1 6364   2.633   2.158   2.998  0.3881  0.2917 -0.0035
 1794SOL    HW2 6365   2.728   2.250   3.073  0.5526 -1.2370  1.6973
 1794SOL     MW 6366   2.660   2.195   3.073 -0.1447 -0.3896  0.5302
 1795SOL     OW 6367   0.466   5.119   2.127 -0.2217 -0.1337  0.0382
 1795SOL    HW1 6368   0.518   5.076   2.194 -0.5453 -0.9293 -0.2108
 1795SOL    HW2 6369   0.385   5.069   2.123 -1.3634  1.5794  0.9933
 1795SOL     MW 6370   0.462   5.107   2.135 -0.4093 -0.0167  0.1285
 1796SOL     OW 6371   2.871   2.119   2.889  0.3276 -0.2217 -0.0320
 1796SOL    HW1 6372   2.836   2.048   2.944  0.4782 -2.1123 -2.2928
 1796SOL    HW2 6373   2.803   2.133   2.823  0.6066  1.2958 -0.0104
 1796SOL     MW 6374   2.858   2.112   2.887  0.3824 -0.2697 -0.3190
 1797SOL     OW 6375   3.467   1.170   2.921 -0.1700  0.4056  0.1208
 1797SOL    HW1 6376   3.524   1.188   2.846  0.0701 -0.6609  0.0426
 1797SOL    HW2 6377   3.514   1.104   2.972  0.0205  1.6434  1.6210
 1797SOL     MW 6378   3.481   1.164   2.918 -0.1149  0.4276  0.3030
 1798SOL     OW 6379   4.391   3.087   4.255 -0.0753 -0.3260 -0.0167
 1798SOL    HW1 6380   4.303   3.106   4.287 -0.2226  0.4256 -0.8758
 1798SOL    HW2 6381   4.449   3.126   4.321 -0.3793  1.0220 -0.5341
 1798SOL     MW 6382   4.387   3.094   4.268 -0.1330 -0.0570 -0.1926
 1799SOL     OW 6383   2.273   1.097   5.531  0.1159  0.0424 -0.7186
 1799SOL    HW1 6384   2.263   1.174   5.475  0.5965  0.5871 -0.0629
 1799SOL    HW2 6385   2.225   1.028   5.486 -1.8099  1.1663 -0.4394
 1799SOL     MW 6386   2.266   1.098   5.518 -0.0689  0.2559 -0.5989
 1800SOL     OW 6387   1.277   5.854   4.180  0.2632 -0.1220 -0.0001
 1800SOL    HW1 6388   1.355   5.821   4.224  0.1727 -0.9526 -0.4366
 1800SOL    HW2 6389   1.208   5.792   4.205 -1.7948  4.0760  5.5395
 1800SOL     MW 6390   1.278   5.842   4.189 -0.0119  0.3090  0.6533
 1801SOL     OW 6391   1.026   0.457   1.241  0.0318  0.1058  0.0081
 1801SOL    HW1 6392   0.977   0.477   1.320  0.9832  1.1014  0.3556
 1801SOL    HW2 6393   0.959   0.445   1.174 -0.9439 -3.3313  1.4732
 1801SOL     MW 6394   1.011   0.458   1.242  0.0287 -0.2067  0.2401
 1802SOL     OW 6395   0.590   1.349   1.365  0.0525  0.2350 -0.4674
 1802SOL    HW1 6396   0.525   1.377   1.300 -0.4030 -1.3859 -0.7370
 1802SOL    HW2 6397   0.569   1.257   1.381  2.3130 -0.3317 -0.6107
 1802SOL     MW 6398   0.579   1.341   1.358  0.2835 -0.0451 -0.5203
 1803SOL     OW 6399   0.231   3.249   5.784  0.4388 -0.7391 -0.2716
 1803SOL    HW1 6400   0.203   3.168   5.827 -0.3374 -0.5785 -0.4607
 1803SOL    HW2 6401   0.150   3.300   5.775  0.9147  0.0279 -0.2143
 1803SOL     MW 6402   0.217   3.245   5.788  0.4004 -0.6201 -0.2885
 1804SOL     OW 6403   1.807   4.242   1.602  0.1676 -0.1334 -0.0421
 1804SOL    HW1 6404   1.823   4.277   1.515  2.1711  0.6357  0.6231
 1804SOL    HW2 6405   1.723   4.281   1.628 -0.1630  0.0661 -1.3981
 1804SOL     MW 6406   1.798   4.252   1.594  0.3818 -0.0095 -0.1305
 1805SOL     OW 6407   1.189   1.787   2.508  0.2259 -0.0680 -0.1922
 1805SOL    HW1 6408   1.130   1.719   2.474 -2.0017  1.6116  0.1722
 1805SOL    HW2 6409   1.239   1.815   2.431 -0.3350 -0.6456 -0.7795
 1805SOL     MW 6410   1.187   1.782   2.494 -0.1310  0.0731 -0.2210
 1806SOL     OW 6411   0.408   1.749   5.792 -0.1973 -0.3371 -0.1737
 1806SOL    HW1 6412   0.319   1.770   5.761 -0.4029 -0.0164  0.6336
 1806SOL    HW2 6413   0.465   1.804   5.738 -0.5180 -0.1707 -0.3487
 1806SOL     MW 6414   0.404   1.759   5.781 -0.2647 -0.2748 -0.0925
 1807SOL     OW 6415   0.115   3.766   1.434  0.0086 -0.2152  0.1778
 1807SOL    HW1 6416   0.038   3.710   1.418 -0.9672  1.0694  0.2596
 1807SOL    HW2 6417   0.113   3.830   1.363  0.6677  0.1843  0.5174
 1807SOL     MW 6418   0.105   3.767   1.423 -0.0320  0.0007  0.2319
 1808SOL     OW 6419   0.630   5.535   5.246 -0.1520 -0.2675 -0.0077
 1808SOL    HW1 6420   0.634   5.440   5.257  1.5064 -0.4784 -1.9957
 1808SOL    HW2 6421   0.713   5.566   5.280 -1.0473  0.5768  1.4218
 1808SOL     MW 6422   0.641   5.526   5.252 -0.0543 -0.1869 -0.0792
 1809SOL     OW 6423   2.392   1.152   3.982  0.0693 -0.5189 -0.3532
 1809SOL    HW1 6424   2.449   1.170   3.907  0.4484 -0.2941 -0.0148
 1809SOL    HW2 6425   2.449   1.111   4.047 -0.5542 -1.9538 -0.6897
 1809SOL     MW 6426   2.406   1.149   3.981  0.0379 -0.6738 -0.3529
 1810SOL     OW 6427   2.305   5.126   3.200 -0.6145  0.0609 -0.3556
 1810SOL    HW1 6428   2.244   5.128   3.126 -0.6100 -1.5902 -0.4245
 1810SOL    HW2 6429   2.315   5.033   3.220  1.0884  0.3789  0.3250
 1810SOL     MW 6430   2.298   5.114   3.193 -0.3958 -0.1097 -0.2775
 1811SOL     OW 6431   3.434   3.141   4.693  0.4642  0.3920 -0.2724
 1811SOL    HW1 6432   3.505   3.164   4.633 -0.9501 -0.9351 -2.5585
 1811SOL    HW2 6433   3.418   3.048   4.677 -0.0808  0.0491  2.0760
 1811SOL     MW 6434   3.441   3.132   4.683  0.2134  0.1781 -0.2642
 1812SOL     OW 6435   3.072   4.370   3.502  0.0336  0.4358 -0.5448
 1812SOL    HW1 6436   3.131   4.325   3.562 -0.0004 -0.4588 -1.1649
 1812SOL    HW2 6437   2.995   4.313   3.497 -0.2765  0.8771 -0.8500
 1812SOL     MW 6438   3.069   4.356   3.509 -0.0103  0.3781 -0.6635
 1813SOL     OW 6439   4.204   5.759   0.868  0.3936 -0.1507 -0.0415
 1813SOL    HW1 6440   4.267   5.780   0.937 -0.4550  3.9532 -0.3827
 1813SOL    HW2 6441   4.247   5.783   0.787  0.3818 -2.4574 -0.7604
 1813SOL     MW 6442   4.217   5.765   0.867  0.2832  0.0792 -0.1772
 1814SOL     OW 6443   5.657   5.349   0.789  0.0800  0.1162 -0.1133
 1814SOL    HW1 6444   5.613   5.264   0.789  2.2036 -1.0521  2.1727
 1814SOL    HW2 6445   5.616   5.397   0.861  0.6292  0.0662  0.2342
 1814SOL     MW 6446   5.646   5.345   0.798  0.4220 -0.0396  0.2238
 1815SOL     OW 6447   4.670   4.599   1.243  1.0947 -0.3509 -0.1578
 1815SOL    HW1 6448   4.697   4.523   1.191  0.3505  0.5685 -1.9601
 1815SOL    HW2 6449   4.679   4.673   1.183 -0.8973  0.5896  0.6675
 1815SOL     MW 6450   4.674   4.599   1.228  0.7443 -0.1130 -0.2830
 1816SOL     OW 6451   4.261   3.587   2.175  0.4077 -0.6345 -0.2226
 1816SOL    HW1 6452   4.242   3.645   2.101 -2.5371  0.8399  1.6270
 1816SOL    HW2 6453   4.234   3.500   2.145  0.2061 -0.2221 -1.2477
 1816SOL     MW 6454   4.255   3.583   2.162  0.0048 -0.3932 -0.1173
 1817SOL     OW 6455   0.579   1.307   2.420  0.0415  0.2443 -0.4783
 1817SOL    HW1 6456   0.642   1.364   2.377 -1.4194  1.8491 -0.5557
 1817SOL    HW2 6457   0.513   1.290   2.353 -0.4754 -0.0646  0.1029
 1817SOL     MW 6458   0.578   1.312   2.406 -0.2117  0.4102 -0.4139
 1818SOL     OW 6459   3.082   2.102   5.348 -0.3256 -0.9771  0.1218
 1818SOL    HW1 6460   3.084   2.024   5.292  0.0994 -1.9091  1.4309
 1818SOL    HW2 6461   3.012   2.085   5.411 -3.2986  1.6188 -2.2714
 1818SOL     MW 6462   3.073   2.090   5.349 -0.6518 -0.7644 -0.0162
 1819SOL     OW 6463   3.425   4.687   5.488  0.0295  0.2559  0.4894
 1819SOL    HW1 6464   3.437   4.601   5.528 -0.3528  0.0821  0.2292
 1819SOL    HW2 6465   3.357   4.730   5.541 -0.0306  0.2642  0.4051
 1819SOL     MW 6466   3.418   4.682   5.500 -0.0269  0.2351  0.4449
 1820SOL     OW 6467   4.708   2.012   0.098 -0.3632  0.4710 -0.3633
 1820SOL    HW1 6468   4.612   2.008   0.097 -0.4024  1.2507 -0.0329
 1820SOL    HW2 6469   4.732   2.059   0.018 -0.2226 -0.3141 -0.7867
 1820SOL     MW 6470   4.699   2.017   0.088 -0.3505  0.4704 -0.3752
 1821SOL     OW 6471   3.156   5.554   0.684 -0.1228  0.1187 -0.2427
 1821SOL    HW1 6472   3.221   5.622   0.667 -0.9088  0.9990  0.2464
 1821SOL    HW2 6473   3.150   5.506   0.601  3.1183 -1.7067  0.4750
 1821SOL     MW 6474   3.163   5.557   0.671  0.1915 -0.0019 -0.0882
 1822SOL     OW 6475   5.900   3.965   4.062 -0.1480 -0.8067  0.1993
 1822SOL    HW1 6476   5.965   3.905   4.097  1.0740 -1.5799 -3.1625
 1822SOL    HW2 6477   5.817   3.919   4.072  0.5286 -2.2130 -0.5053
 1822SOL     MW 6478   5.898   3.952   4.068  0.0949 -1.0858 -0.3219
 1823SOL     OW 6479   1.500   4.056   0.791 -0.6389 -0.4987  0.3861
 1823SOL    HW1 6480   1.495   3.961   0.792 -1.1789 -0.4637  2.2345
 1823SOL    HW2 6481   1.530   4.080   0.879 -0.4401  1.0322 -0.0836
 1823SOL     MW 6482   1.503   4.047   0.802 -0.6827 -0.2980  0.5625
 1824SOL     OW 6483   0.015   3.398   0.588 -0.6575 -0.3135  0.3484
 1824SOL    HW1 6484   0.051   3.352   0.512 -1.3141 -0.7673  0.3096
 1824SOL    HW2 6485   0.090   3.444   0.626 -0.3145 -0.1573 -0.5201
 1824SOL     MW 6486   0.029   3.398   0.583 -0.6976 -0.3517  0.2322
 1825SOL     OW 6487   4.087   1.260   3.548  0.1982 -0.4725 -0.5210
 1825SOL    HW1 6488   4.175   1.297   3.541  1.7596 -3.4305  2.2154
 1825SOL    HW2 6489   4.058   1.285   3.636 -1.2886 -0.4369 -1.0122
 1825SOL     MW 6490   4.095   1.268   3.558  0.2079 -0.8467 -0.2339
 1826SOL     OW 6491   0.904   5.236   4.673 -0.2839 -0.7184 -0.9915
 1826SOL    HW1 6492   0.924   5.192   4.756  0.0954  1.5738  0.1836
 1826SOL    HW2 6493   0.989   5.249   4.631  0.0430  1.9796  0.3385
 1826SOL     MW 6494   0.917   5.232   4.679 -0.1935 -0.0796 -0.6709
 1827SOL     OW 6495   2.406   4.395   4.450  0.7910 -0.3752  0.3255
 1827SOL    HW1 6496   2.412   4.412   4.544  1.7902  0.4046  0.1315
 1827SOL    HW2 6497   2.484   4.438   4.413  0.2498 -0.4274 -0.8885
 1827SOL     MW 6498   2.417   4.403   4.457  0.8495 -0.2818  0.1445
 1828SOL     OW 6499   0.305   5.623   3.955 -0.4370 -0.0479  0.2950
 1828SOL    HW1 6500   0.317   5.549   3.895 -2.0683 -1.6648  1.8833
 1828SOL    HW2 6501   0.299   5.699   3.898 -0.5021 -1.3660 -1.5193
 1828SOL     MW 6502   0.305   5.623   3.940 -0.6542 -0.4234  0.2661
 1829SOL     OW 6503   2.058   5.562   0.038  0.1432 -0.5613  0.8437
 1829SOL    HW1 6504   2.097   5.560   0.126  3.1555 -0.7888 -0.4335
 1829SOL    HW2 6505   2.122   5.517  -0.018 -2.4626 -1.8723 -1.2241
 1829SOL     MW 6506   2.071   5.556   0.042  0.1953 -0.7582  0.4158
 1830SOL     OW 6507   2.020   4.221   5.039 -0.2256 -0.5444 -0.1907
 1830SOL    HW1 6508   2.002   4.163   5.113 -1.0738  0.5073  0.4518
 1830SOL    HW2 6509   1.934   4.237   5.000  0.3579 -2.1081 -2.2025
 1830SOL     MW 6510   2.007   4.216   5.043 -0.2592 -0.6104 -0.3662
 1831SOL     OW 6511   0.367   1.085   0.305 -0.1210  0.1084 -0.0792
 1831SOL    HW1 6512   0.400   1.032   0.232 -1.4576 -2.0372  0.8225
 1831SOL    HW2 6513   0.279   1.111   0.278  0.2124  1.1957 -0.1503
 1831SOL     MW 6514   0.360   1.081   0.292 -0.2494 -0.0271  0.0271
 1832SOL     OW 6515   3.825   0.876   4.781  0.3423 -0.1445 -0.2742
 1832SOL    HW1 6516   3.779   0.843   4.704 -1.4732 -0.0973  0.7608
 1832SOL    HW2 6517   3.825   0.803   4.843  1.1860  0.0270 -0.0694
 1832SOL     MW 6518   3.819   0.863   4.779  0.2179 -0.1165 -0.1154
 1833SOL     OW 6519   3.304   3.733   3.383 -0.1274  0.4368 -0.2597
 1833SOL    HW1 6520   3.345   3.788   3.316 -0.3425  0.9559  0.0338
 1833SOL    HW2 6521   3.213   3.724   3.354  0.1951 -0.7495 -0.9329
 1833SOL     MW 6522   3.297   3.739   3.371 -0.1137  0.3512 -0.3080
 1834SOL     OW 6523   3.576   3.561   4.419 -0.9954 -0.8753 -0.1938
 1834SOL    HW1 6524   3.528   3.615   4.481  0.5401  0.0543  0.2338
 1834SOL    HW2 6525   3.517   3.551   4.345 -2.6387 -1.5512  1.1817
 1834SOL     MW 6526   3.563   3.567   4.417 -1.0090 -0.8428  0.0367
 1835SOL     OW 6527   2.848   5.693   4.152 -0.1005  0.4094  0.2807
 1835SOL    HW1 6528   2.912   5.651   4.209  0.3337  1.8329  0.8594
 1835SOL    HW2 6529   2.901   5.751   4.096 -0.6849  0.1808 -0.5155
 1835SOL     MW 6530   2.863   5.695   4.152 -0.1199  0.5627  0.2522
 1836SOL     OW 6531   4.321   1.084   1.569 -0.4734  0.3845 -0.4168
 1836SOL    HW1 6532   4.287   1.171   1.548 -0.4662  0.3445 -0.5891
 1836SOL    HW2 6533   4.306   1.075   1.663  0.0265  0.7881 -0.3003
 1836SOL     MW 6534   4.314   1.094   1.578 -0.4086  0.4309 -0.4240
 1837SOL     OW 6535   5.691   4.257   4.302 -0.2110 -0.6005 -0.0782
 1837SOL    HW1 6536   5.638   4.193   4.351  0.8707  1.2959  3.7836
 1837SOL    HW2 6537   5.632   4.332   4.290  0.0090 -0.4685 -0.3351
 1837SOL     MW 6538   5.676   4.258   4.307 -0.0443 -0.3409  0.3834
 1838SOL     OW 6539   0.114   1.450   4.304 -0.0555 -0.7158  0.1589
 1838SOL    HW1 6540   0.163   1.412   4.231  0.5862  0.4879 -0.0506
 1838SOL    HW2 6541   0.159   1.532   4.323 -2.3517  0.7186 -0.4252
 1838SOL     MW 6542   0.126   1.456   4.297 -0.2673 -0.3781  0.0572
 1839SOL     OW 6543   1.709   2.749   1.458  0.2727  0.9263 -0.0327
 1839SOL    HW1 6544   1.739   2.818   1.399  0.2418  1.1563  0.2225
 1839SOL    HW2 6545   1.789   2.700   1.480  0.5202  1.7424  0.9128
 1839SOL     MW 6546   1.723   2.751   1.453  0.3005  1.0600  0.1211
 1840SOL     OW 6547   3.744   0.114   4.439 -0.5747 -0.0718 -0.3750
 1840SOL    HW1 6548   3.824   0.113   4.491 -0.1508 -1.1102 -1.0398
 1840SOL    HW2 6549   3.753   0.190   4.382  0.1862 -0.4915 -0.8227
 1840SOL     MW 6550   3.755   0.123   4.439 -0.4232 -0.2585 -0.5174
 1841SOL     OW 6551   0.303   2.245   2.146 -0.0544 -0.0888 -0.0000
 1841SOL    HW1 6552   0.247   2.248   2.069 -0.8450 -0.7221  0.5408
 1841SOL    HW2 6553   0.251   2.199   2.212  0.6394  0.3790  0.8885
 1841SOL     MW 6554   0.289   2.239   2.145 -0.0668 -0.1097  0.1829
 1842SOL     OW 6555   5.877   0.590   1.152  0.7972 -0.0482  0.4097
 1842SOL    HW1 6556   5.927   0.518   1.191 -1.0099 -1.8540 -0.5096
 1842SOL    HW2 6557   5.911   0.668   1.194  1.2307 -1.6329  3.1274
 1842SOL     MW 6558   5.888   0.591   1.163  0.6218 -0.4822  0.6399
 1843SOL     OW 6559   5.986   4.740   2.038 -0.2092 -0.2721 -0.3193
 1843SOL    HW1 6560   5.959   4.741   2.130 -0.0347  0.3246 -0.2756
 1843SOL    HW2 6561   6.033   4.822   2.025  0.9567 -0.9675 -0.5896
 1843SOL     MW 6562   5.988   4.750   2.048 -0.0376 -0.2847 -0.3483
 1844SOL     OW 6563   3.560   1.244   5.722 -0.0671  0.8113  0.1701
 1844SOL    HW1 6564   3.481   1.272   5.768 -1.3271 -3.0709  0.5336
 1844SOL    HW2 6565   3.599   1.178   5.779  2.5496  1.4378 -0.8185
 1844SOL     MW 6566   3.555   1.239   5.735  0.1068  0.3946  0.0901
 1845SOL     OW 6567   1.629   3.254   1.827 -0.2942 -0.1095  0.4966
 1845SOL    HW1 6568   1.583   3.210   1.898  0.3240 -0.2558  0.8117
 1845SOL    HW2 6569   1.660   3.337   1.866 -0.6800  0.1917  0.1619
 1845SOL     MW 6570   1.627   3.259   1.841 -0.2645 -0.0896  0.4942
 1846SOL     OW 6571   2.958   3.207   5.106 -0.4281  0.0195  0.1887
 1846SOL    HW1 6572   2.916   3.275   5.158  1.2673  0.6833  0.7252
 1846SOL    HW2 6573   2.969   3.245   5.019 -1.4281 -0.3568 -0.1060
 1846SOL     MW 6574   2.954   3.221   5.102 -0.3390  0.0560  0.2193
 1847SOL     OW 6575   2.433   2.671   2.393  0.0112  0.1863  0.8833
 1847SOL    HW1 6576   2.390   2.689   2.477  0.3902  3.2713  0.4512
 1847SOL    HW2 6577   2.519   2.638   2.418 -1.1548 -2.4617  1.6946
 1847SOL     MW 6578   2.438   2.669   2.407 -0.0896  0.2422  0.9317
 1848SOL     OW 6579   5.023   2.240   0.135 -0.1024  0.1613  0.2314
 1848SOL    HW1 6580   5.049   2.173   0.199  1.3890 -0.2943 -0.8222
 1848SOL    HW2 6581   5.085   2.312   0.150 -0.5738  0.5817  0.1604
 1848SOL     MW 6582   5.035   2.241   0.145  0.0281  0.1569  0.0875
 1849SOL     OW 6583   0.230   0.508   1.406 -0.5441  0.2204  0.1780
 1849SOL    HW1 6584   0.234   0.434   1.467  1.1594 -0.3057 -0.5183
 1849SOL    HW2 6585   0.245   0.585   1.461 -1.2291 -0.0456  0.7483
 1849SOL     MW 6586   0.232   0.508   1.421 -0.4137  0.1190  0.1619
 1850SOL     OW 6587   2.422   4.998   1.422 -0.0590  0.1819  0.0681
 1850SOL    HW1 6588   2.499   4.987   1.477  0.4846  0.7319 -0.5578
 1850SOL    HW2 6589   2.406   5.093   1.423 -0.1370  0.1782 -0.5794
 1850SOL     MW 6590   2.429   5.009   1.429  0.0007  0.2522 -0.0949
 1851SOL     OW 6591   5.711   5.164   0.400  0.0747  0.2003 -0.1692
 1851SOL    HW1 6592   5.798   5.198   0.382 -0.1832  1.5715  1.0437
 1851SOL    HW2 6593   5.658   5.194   0.326  0.6364 -0.7711 -0.9896
 1851SOL     MW 6594   5.715   5.172   0.388  0.1135  0.2513 -0.1189
 1852SOL     OW 6595   1.036   1.642   5.774 -0.6567  0.5870 -0.4786
 1852SOL    HW1 6596   1.029   1.571   5.711 -1.1537  0.5009 -0.3288
 1852SOL    HW2 6597   1.130   1.662   5.778 -0.2315 -1.5962  1.1803
 1852SOL     MW 6598   1.047   1.635   5.767 -0.6659  0.2965 -0.2470
 1853SOL     OW 6599   3.357   4.152   1.675 -0.1558 -0.1778 -0.6097
 1853SOL    HW1 6600   3.413   4.222   1.708  2.2814 -1.9844 -0.7657
 1853SOL    HW2 6601   3.418   4.090   1.635 -2.2176 -2.5651 -0.1601
 1853SOL     MW 6602   3.372   4.153   1.674 -0.1078 -0.7148 -0.5721
 1854SOL     OW 6603   3.723   5.872   4.264  0.7279 -0.4826 -0.0297
 1854SOL    HW1 6604   3.659   5.914   4.206  0.2862 -0.5734  0.3892
 1854SOL    HW2 6605   3.742   5.938   4.330  1.6393 -0.1843 -0.5779
 1854SOL     MW 6606   3.717   5.886   4.265  0.7882 -0.4559 -0.0458
 1855SOL     OW 6607   2.648   0.055   2.856  1.3793  0.0559 -0.4929
 1855SOL    HW1 6608   2.672   0.001   2.780  1.4415  3.6210 -3.1880
 1855SOL    HW2 6609   2.732   0.084   2.891  1.3230  1.1269 -1.2039
 1855SOL     MW 6610   2.662   0.052   2.850  1.3797  0.6495 -0.9289
 1856SOL     OW 6611   1.331   5.301   5.259 -0.4687 -0.6551 -0.5898
 1856SOL    HW1 6612   1.353   5.344   5.176  1.6035 -1.2067 -0.3732
 1856SOL    HW2 6613   1.261   5.240   5.238 -1.1252  0.4441 -1.5852
 1856SOL     MW 6614   1.325   5.299   5.246 -0.2873 -0.5851 -0.6890
 1857SOL     OW 6615   2.284   5.113   4.579  0.0984  0.5608 -0.0402
 1857SOL    HW1 6616   2.301   5.205   4.596 -1.1982  0.7339  0.4149
 1857SOL    HW2 6617   2.364   5.080   4.539  0.9501  1.6289  0.7701
 1857SOL     MW 6618   2.296   5.120   4.576  0.0412  0.7191  0.1221
 1858SOL     OW 6619   2.130   1.417   1.838 -0.6596  1.2148  1.0752
 1858SOL    HW1 6620   2.058   1.456   1.889  0.4002 -0.5376  4.0466
 1858SOL    HW2 6621   2.104   1.326   1.825  0.3621  0.9330  0.9555
 1858SOL     MW 6622   2.118   1.411   1.843 -0.3934  0.9543  1.4403
 1859SOL     OW 6623   3.884   3.453   0.493 -0.3473  0.4487 -0.0734
 1859SOL    HW1 6624   3.910   3.366   0.522  0.1581  0.6258  0.0167
 1859SOL    HW2 6625   3.942   3.473   0.420  0.5142  1.2860  0.8120
 1859SOL     MW 6626   3.895   3.445   0.487 -0.1721  0.5786  0.0514
 1860SOL     OW 6627   2.798   0.663   1.699  0.0524 -0.2213  0.6473
 1860SOL    HW1 6628   2.873   0.640   1.644 -0.6288  2.0684 -1.2990
 1860SOL    HW2 6629   2.725   0.614   1.661 -0.1874  0.4728  0.2086
 1860SOL     MW 6630   2.798   0.654   1.687 -0.0658  0.1606  0.3420
 1861SOL     OW 6631   1.543   3.454   5.169  0.6197  0.8481 -0.5795
 1861SOL    HW1 6632   1.456   3.479   5.137  0.5236 -0.0667 -1.0348
 1861SOL    HW2 6633   1.527   3.424   5.259  0.6843  2.0621 -0.1522
 1861SOL     MW 6634   1.530   3.454   5.177  0.6158  0.8862 -0.5832
 1862SOL     OW 6635   2.876   4.704   3.728  0.1613 -0.2975 -0.6515
 1862SOL    HW1 6636   2.953   4.739   3.681 -0.0485 -0.5411 -1.1814
 1862SOL    HW2 6637   2.854   4.772   3.792 -1.5261  1.5405 -3.0879
 1862SOL     MW 6638   2.883   4.718   3.730 -0.0815 -0.0935 -1.0314
 1863SOL     OW 6639   2.681   0.774   0.727 -0.1034  0.2968  0.1145
 1863SOL    HW1 6640   2.594   0.736   0.735 -0.1558  0.9935  3.4263
 1863SOL    HW2 6641   2.741   0.700   0.735 -0.3219  0.2995  1.9329
 1863SOL     MW 6642   2.678   0.760   0.729 -0.1380  0.3864  0.7712
 1864SOL     OW 6643   1.982   4.207   3.245 -0.6436 -0.4849  0.3445
 1864SOL    HW1 6644   2.024   4.194   3.330 -2.4294 -0.9575  1.1807
 1864SOL    HW2 6645   1.981   4.121   3.204  0.7065 -0.1592 -0.4179
 1864SOL     MW 6646   1.987   4.195   3.250 -0.6994 -0.5040  0.3541
 1865SOL     OW 6647   1.028   3.628   5.653 -0.1099  0.8289  0.1782
 1865SOL    HW1 6648   0.982   3.572   5.591 -0.0244  1.3631 -0.3687
 1865SOL    HW2 6649   1.061   3.568   5.720  0.1433  0.2040 -0.5107
 1865SOL     MW 6650   1.027   3.613   5.654 -0.0665  0.8173  0.0200
 1866SOL     OW 6651   5.838   4.312   1.819  0.0292 -0.3959  0.8073
 1866SOL    HW1 6652   5.849   4.407   1.819 -0.6986 -0.3059  0.8972
 1866SOL    HW2 6653   5.818   4.291   1.911 -1.9632 -0.3644  0.4023
 1866SOL     MW 6654   5.837   4.322   1.831 -0.3190 -0.3805  0.7670
 1867SOL     OW 6655   3.083   1.988   3.574  0.4424 -0.4609  0.1491
 1867SOL    HW1 6656   3.145   2.054   3.542 -1.3481  1.1123 -0.1749
 1867SOL    HW2 6657   3.052   2.023   3.658 -0.4279 -0.9684  0.0418
 1867SOL     MW 6658   3.087   2.001   3.581  0.1016 -0.3245  0.0942
 1868SOL     OW 6659   2.440   4.263   3.970  0.1473  0.7272  0.3984
 1868SOL    HW1 6660   2.526   4.303   3.959  0.4150  0.0242 -0.1508
 1868SOL    HW2 6661   2.411   4.291   4.057  1.9175 -0.8486  1.5435
 1868SOL     MW 6662   2.447   4.272   3.980  0.4084  0.4354  0.4745
 1869SOL     OW 6663   5.586   5.353   5.348  0.7795 -0.6482  0.4195
 1869SOL    HW1 6664   5.650   5.301   5.300  0.5308 -1.0354  0.5070
 1869SOL    HW2 6665   5.509   5.298   5.354  0.0551  0.2393 -0.6275
 1869SOL     MW 6666   5.585   5.340   5.343  0.6547 -0.5841  0.2971
 1870SOL     OW 6667   5.868   0.632   0.721  0.2271 -0.0091 -0.1202
 1870SOL    HW1 6668   5.952   0.620   0.765  0.3978 -0.7254 -0.6393
 1870SOL    HW2 6669   5.804   0.641   0.793  1.2029  4.2768  0.3655
 1870SOL     MW 6670   5.870   0.632   0.736  0.3738  0.4478 -0.1245
 1871SOL     OW 6671   2.304   5.627   5.007  0.9078  0.4354  0.0960
 1871SOL    HW1 6672   2.237   5.559   5.000 -1.9387  3.0892  0.6079
 1871SOL    HW2 6673   2.299   5.675   4.925  1.0439  1.6676  0.7978
 1871SOL     MW 6674   2.295   5.624   4.996  0.5610  0.9327  0.2518
 1872SOL     OW 6675   5.715   3.679   0.040  0.1897  0.1749 -0.1854
 1872SOL    HW1 6676   5.728   3.767   0.077  0.2821  0.2481 -0.3908
 1872SOL    HW2 6677   5.790   3.628   0.072 -1.1701 -0.5106  1.9907
 1872SOL     MW 6678   5.726   3.684   0.049  0.0272  0.0963  0.0669
 1873SOL     OW 6679   0.372   3.410   2.820 -0.0167 -0.0579 -0.0442
 1873SOL    HW1 6680   0.306   3.464   2.863  0.5753 -0.0128  0.8063
 1873SOL    HW2 6681   0.374   3.329   2.871  2.3104  0.8735  1.4073
 1873SOL     MW 6682   0.364   3.406   2.832  0.3570  0.0670  0.2503
 1874SOL     OW 6683   2.985   4.780   0.814  0.5371  0.3301 -0.0273
 1874SOL    HW1 6684   3.041   4.846   0.774  0.2771  0.0337 -0.8993
 1874SOL    HW2 6685   2.969   4.717   0.744 -0.3876  0.0951  0.3825
 1874SOL     MW 6686   2.990   4.780   0.800  0.3858  0.2623 -0.0864
 1875SOL     OW 6687   2.819   5.540   0.033  0.4069  0.1370 -0.1817
 1875SOL    HW1 6688   2.892   5.511   0.086 -0.7642 -2.9793 -0.1425
 1875SOL    HW2 6689   2.745   5.487   0.063 -0.7828 -0.1265 -3.3358
 1875SOL     MW 6690   2.819   5.530   0.043  0.1047 -0.2956 -0.5804
 1876SOL     OW 6691   1.861   5.594   1.079  0.0665 -0.6995 -0.3222
 1876SOL    HW1 6692   1.855   5.661   1.147 -2.6351 -0.2712 -0.8960
 1876SOL    HW2 6693   1.772   5.558   1.075  1.0573 -3.0900 -1.2500
 1876SOL     MW 6694   1.849   5.598   1.087 -0.1525 -0.9508 -0.5144
 1877SOL     OW 6695   3.825   1.570   2.543 -0.0369  0.6324  0.6782
 1877SOL    HW1 6696   3.881   1.601   2.471 -1.8114 -1.6238 -1.7898
 1877SOL    HW2 6697   3.778   1.648   2.573 -0.6289  1.3102 -1.9038
 1877SOL     MW 6698   3.826   1.584   2.537 -0.3397  0.4305  0.0317
 1878SOL     OW 6699   4.761   2.293   3.256 -0.5631  0.0785 -0.6548
 1878SOL    HW1 6700   4.709   2.366   3.291  0.3593 -0.0948  1.1213
 1878SOL    HW2 6701   4.708   2.216   3.274 -1.6587  0.2986 -2.7679
 1878SOL     MW 6702   4.747   2.293   3.263 -0.5856  0.0846 -0.6979
 1879SOL     OW 6703   2.625   5.413   2.791  0.2175 -0.2890  0.3707
 1879SOL    HW1 6704   2.561   5.455   2.849 -0.6173 -1.6129  0.4162
 1879SOL    HW2 6705   2.602   5.444   2.704  2.3487  2.8452  0.8237
 1879SOL     MW 6706   2.614   5.423   2.787  0.3834 -0.0567  0.4349
 1880SOL     OW 6707   4.380   0.098   1.991 -0.8009  0.1415 -0.0940
 1880SOL    HW1 6708   4.308   0.071   1.934  0.0951 -1.7970 -0.3593
 1880SOL    HW2 6709   4.370   0.044   2.070  0.7729 -0.7139 -0.4510
 1880SOL     MW 6710   4.370   0.088   1.994 -0.4849 -0.2162 -0.1736
 1881SOL     OW 6711   1.476   2.135   5.494 -0.3834  0.4599  0.6881
 1881SOL    HW1 6712   1.413   2.113   5.562 -0.2915 -0.7151  0.4053
 1881SOL    HW2 6713   1.424   2.179   5.427 -0.3427  2.2959  1.8235
 1881SOL     MW 6714   1.462   2.138   5.494 -0.3663  0.5448  0.7973
 1882SOL     OW 6715   5.221   5.025   5.510  0.4356 -0.2445 -0.1780
 1882SOL    HW1 6716   5.294   4.964   5.527  0.6744  0.1067  0.0613
 1882SOL    HW2 6717   5.143   4.973   5.527  0.6257 -0.6631 -0.5597
 1882SOL     MW 6718   5.221   5.010   5.515  0.4907 -0.2532 -0.1965
 1883SOL     OW 6719   0.255   0.301   3.451 -0.2197  0.0507  0.1867
 1883SOL    HW1 6720   0.173   0.284   3.496  0.0420  0.0606  0.6693
 1883SOL    HW2 6721   0.289   0.381   3.491 -0.1584  0.2483 -0.2650
 1883SOL     MW 6722   0.249   0.309   3.462 -0.1783  0.0773  0.1907
 1884SOL     OW 6723   2.993   3.436   2.015  0.4903 -0.1058  0.3845
 1884SOL    HW1 6724   2.953   3.456   1.930 -1.1735 -0.2716  1.1094
 1884SOL    HW2 6725   3.087   3.442   1.999  0.1716  1.1822 -1.1413
 1884SOL     MW 6726   3.000   3.439   2.002  0.2365  0.0379  0.2820
 1885SOL     OW 6727   5.280   3.652   4.889  0.4724 -0.1772  0.1354
 1885SOL    HW1 6728   5.354   3.696   4.930  2.6320 -1.5278 -2.2024
 1885SOL    HW2 6729   5.228   3.723   4.851  0.1034  0.8384  2.4986
 1885SOL     MW 6730   5.283   3.666   4.889  0.7019 -0.2203  0.1383
 1886SOL     OW 6731   0.364   2.558   5.468  0.3736  0.1344  0.8336
 1886SOL    HW1 6732   0.405   2.643   5.449  1.1076 -0.1877  0.9675
 1886SOL    HW2 6733   0.384   2.504   5.392  0.8650 -0.2613  1.2338
 1886SOL     MW 6734   0.372   2.562   5.456  0.5305  0.0424  0.9022
 1887SOL     OW 6735   5.124   5.326   4.448  0.1310 -0.0893 -0.1162
 1887SOL    HW1 6736   5.084   5.413   4.439  0.2590 -0.0005  0.1757
 1887SOL    HW2 6737   5.218   5.342   4.439  0.2613 -0.0029  1.3779
 1887SOL     MW 6738   5.131   5.339   4.445  0.1640 -0.0672  0.1125
 1888SOL     OW 6739   0.071   3.637   5.690 -0.9111  0.1617  0.2408
 1888SOL    HW1 6740   0.075   3.692   5.611 -3.2805 -0.5159 -0.3806
 1888SOL    HW2 6741   0.052   3.698   5.761  0.1868  0.6321  0.1418
 1888SOL     MW 6742   0.069   3.652   5.689 -1.0739  0.1352  0.1483
 1889SOL     OW 6743   5.650   0.802   5.677 -0.3284 -0.0540 -0.1540
 1889SOL    HW1 6744   5.589   0.737   5.643 -1.7549  0.9565  0.4003
 1889SOL    HW2 6745   5.618   0.820   5.766 -0.0211  1.4794 -0.3432
 1889SOL     MW 6746   5.638   0.796   5.684 -0.4711  0.2717 -0.1073
 1890SOL     OW 6747   1.474   0.147   4.676 -0.4189 -0.4879  0.5587
 1890SOL    HW1 6748   1.381   0.125   4.679 -0.3094 -0.8052  2.1174
 1890SOL    HW2 6749   1.518   0.068   4.707  0.2770  0.1707  1.2817
 1890SOL     MW 6750   1.468   0.134   4.680 -0.3159 -0.4442  0.8507
 1891SOL     OW 6751   0.650   5.883   2.238  0.4168 -0.0538  0.4254
 1891SOL    HW1 6752   0.660   5.890   2.143 -0.4746  0.3662  0.3542
 1891SOL    HW2 6753   0.716   5.942   2.274  2.3955 -2.0421  0.1256
 1891SOL     MW 6754   0.660   5.892   2.230  0.5559 -0.2546  0.3779
 1892SOL     OW 6755   1.767   0.829   0.731  0.3523 -0.1011  0.6378
 1892SOL    HW1 6756   1.799   0.906   0.778  0.9763  1.0675 -1.6384
 1892SOL    HW2 6757   1.843   0.770   0.728  0.5672  0.1915  0.3293
 1892SOL     MW 6758   1.781   0.831   0.736  0.4597  0.0859  0.3069
 1893SOL     OW 6759   5.655   5.685   1.301  0.3881 -0.1035  0.3057
 1893SOL    HW1 6760   5.561   5.701   1.311  0.7066  0.7247  2.1723
 1893SOL    HW2 6761   5.695   5.772   1.307  1.3290 -0.5028  0.0029
 1893SOL     MW 6762   5.648   5.699   1.303  0.5493 -0.0486  0.5060
 1894SOL     OW 6763   5.366   2.674   1.199  0.7783  1.0483  0.6971
 1894SOL    HW1 6764   5.280   2.681   1.159  1.1275 -0.8532 -0.4559
 1894SOL    HW2 6765   5.427   2.701   1.130  1.5980 -5.0489 -1.2455
 1894SOL     MW 6766   5.363   2.678   1.185  0.9279  0.0246  0.3008
 1895SOL     OW 6767   1.618   1.235   4.712 -0.3530  0.5758 -0.1401
 1895SOL    HW1 6768   1.528   1.210   4.731  0.0571  0.3911  1.5857
 1895SOL    HW2 6769   1.610   1.310   4.652 -1.6560  1.3694  1.0154
 1895SOL     MW 6770   1.605   1.241   4.707 -0.4673  0.6537  0.2284
 1896SOL     OW 6771   1.814   2.553   2.056 -0.2716  0.4993  0.3915
 1896SOL    HW1 6772   1.841   2.479   2.109 -2.0495  0.3816  1.1684
 1896SOL    HW2 6773   1.846   2.630   2.104  1.9370  0.2578 -0.6290
 1896SOL     MW 6774   1.821   2.554   2.069 -0.2165  0.4532  0.3603
 1897SOL     OW 6775   5.693   0.315   3.245 -0.4068 -0.1383 -0.0106
 1897SOL    HW1 6776   5.734   0.364   3.174  1.5873  0.3731  1.4642
 1897SOL    HW2 6777   5.735   0.229   3.242  2.3613  1.0249  2.7741
 1897SOL     MW 6778   5.703   0.310   3.235  0.2031  0.0761  0.5348
 1898SOL     OW 6779   0.972   1.636   4.980 -0.4842 -0.1137 -0.5128
 1898SOL    HW1 6780   0.942   1.600   5.064  2.3175  1.6590  1.3239
 1898SOL    HW2 6781   0.922   1.717   4.969 -0.1821  0.1323 -0.0851
 1898SOL     MW 6782   0.962   1.641   4.990 -0.0868  0.1448 -0.2232
 1899SOL     OW 6783   2.501   4.060   3.042 -0.0826  0.3487 -0.2336
 1899SOL    HW1 6784   2.524   3.976   3.082 -1.9424  0.0119  0.1944
 1899SOL    HW2 6785   2.507   4.123   3.113 -0.8530  0.1917 -0.0248
 1899SOL     MW 6786   2.504   4.057   3.056 -0.4196  0.2856 -0.1521
 1900SOL     OW 6787   0.685   0.913   4.515 -0.5422 -0.3281  0.5377
 1900SOL    HW1 6788   0.779   0.931   4.519 -0.9041  1.7628  0.3699
 1900SOL    HW2 6789   0.670   0.852   4.587  0.7104  0.4232  1.4596
 1900SOL     MW 6790   0.695   0.907   4.525 -0.4282  0.0358  0.6342
 1901SOL     OW 6791   3.225   1.494   1.224  0.0312 -0.6662  0.1834
 1901SOL    HW1 6792   3.270   1.411   1.207  1.7369  0.5729 -1.4935
 1901SOL    HW2 6793   3.188   1.519   1.140 -0.8153  0.0935  0.7694
 1901SOL     MW 6794   3.226   1.486   1.211  0.1411 -0.4104  0.0437
 1902SOL     OW 6795   5.444   3.438   3.709  0.4852 -0.2296 -0.3907
 1902SOL    HW1 6796   5.506   3.366   3.717  1.5547  0.6480 -0.7182
 1902SOL    HW2 6797   5.497   3.517   3.717 -0.2851  0.5495 -2.5885
 1902SOL     MW 6798   5.458   3.439   3.711  0.5231 -0.0174 -0.7141
 1903SOL     OW 6799   5.541   2.296   2.187 -0.1610 -0.6948 -0.5461
 1903SOL    HW1 6800   5.577   2.340   2.264  1.0421 -2.3510 -0.1175
 1903SOL    HW2 6801   5.617   2.279   2.131 -0.7504 -1.2170 -1.2112
 1903SOL     MW 6802   5.555   2.299   2.189 -0.0825 -0.9739 -0.5763
 1904SOL     OW 6803   2.526   0.053   3.115  0.3633 -0.2210 -0.4716
 1904SOL    HW1 6804   2.533   0.066   3.020 -2.0260 -1.7839 -0.8847
 1904SOL    HW2 6805   2.567  -0.032   3.130  0.3586 -0.1620 -0.1289
 1904SOL     MW 6806   2.532   0.044   3.105  0.0567 -0.4136 -0.4807
 1905SOL     OW 6807   1.790   2.410   4.166  0.1963 -0.9647  0.4317
 1905SOL    HW1 6808   1.861   2.469   4.141 -0.0199 -0.0784  1.8588
 1905SOL    HW2 6809   1.711   2.451   4.131  0.1875 -1.0555  0.3444
 1905SOL     MW 6810   1.789   2.423   4.158  0.1674 -0.8631  0.6027
 1906SOL     OW 6811   2.557   0.108   1.824  0.3969 -0.5070  0.1595
 1906SOL    HW1 6812   2.649   0.132   1.836  0.7865 -0.8612 -1.8875
 1906SOL    HW2 6813   2.551   0.084   1.731 -1.4282 -1.9256  0.6169
 1906SOL     MW 6814   2.568   0.108   1.813  0.2131 -0.7339 -0.0440
 1907SOL     OW 6815   1.478   1.388   1.043 -0.0218  0.1020 -0.1139
 1907SOL    HW1 6816   1.386   1.368   1.023  1.0101 -1.7969 -3.2023
 1907SOL    HW2 6817   1.524   1.305   1.031  1.9431  0.6697  2.8729
 1907SOL     MW 6818   1.472   1.375   1.039  0.3618 -0.0684 -0.1270
 1908SOL     OW 6819   0.452   3.937   2.443  0.6191  0.2686 -0.4876
 1908SOL    HW1 6820   0.405   3.862   2.479  0.8869  0.1555 -0.3761
 1908SOL    HW2 6821   0.406   3.956   2.361  1.3797 -0.8576 -1.1875
 1908SOL     MW 6822   0.440   3.930   2.437  0.7508  0.1099 -0.5627
 1909SOL     OW 6823   5.868   2.309   4.638 -0.0494 -0.2292 -0.1267
 1909SOL    HW1 6824   5.917   2.314   4.720 -1.9037  1.8099  0.9325
 1909SOL    HW2 6825   5.872   2.398   4.602 -1.8153 -0.3383 -0.6570
 1909SOL     MW 6826   5.875   2.321   4.644 -0.5131  0.0176 -0.0591
 1910SOL     OW 6827   3.526   1.052   4.022 -0.3018  0.4658 -0.2554
 1910SOL    HW1 6828   3.585   1.092   3.958  1.5180  1.1408  1.7958
 1910SOL    HW2 6829   3.440   1.088   4.001  0.3214  0.9727 -2.0615
 1910SOL     MW 6830   3.523   1.061   4.011  0.0110  0.6171 -0.2241
 1911SOL     OW 6831   5.273   4.847   2.282 -0.2432 -0.6624  0.0988
 1911SOL    HW1 6832   5.346   4.816   2.229  0.0536 -0.6388  0.4888
 1911SOL    HW2 6833   5.289   4.809   2.369 -1.8480 -2.4192 -0.3445
 1911SOL     MW 6834   5.284   4.838   2.286 -0.4101 -0.8845  0.0920
 1912SOL     OW 6835   3.048   0.052   1.872 -0.2944  0.8392  0.2821
 1912SOL    HW1 6836   3.116   0.117   1.891 -0.2238  0.3839  1.6006
 1912SOL    HW2 6837   3.039   0.002   1.953 -0.5826 -0.5823 -0.6109
 1912SOL     MW 6838   3.056   0.054   1.885 -0.3223  0.5990  0.3365
 1913SOL     OW 6839   1.778   4.949   0.878 -0.7318 -0.3038  0.2711
 1913SOL    HW1 6840   1.688   4.928   0.905  0.2125 -2.5326  1.9206
 1913SOL    HW2 6841   1.832   4.910   0.947  1.4980  1.0452 -0.6887
 1913SOL     MW 6842   1.773   4.941   0.890 -0.3253 -0.4163  0.3594
 1914SOL     OW 6843   0.224   0.591   5.431  0.2807  0.3935 -0.3361
 1914SOL    HW1 6844   0.155   0.575   5.367  0.0502 -3.0254  0.6670
 1914SOL    HW2 6845   0.304   0.593   5.380 -0.0937 -0.3800 -0.9643
 1914SOL     MW 6846   0.225   0.589   5.417  0.2033 -0.1432 -0.2875
 1915SOL     OW 6847   2.864   4.502   5.199 -0.2619  0.0002  0.3349
 1915SOL    HW1 6848   2.849   4.408   5.187 -1.1894  0.0755  0.8553
 1915SOL    HW2 6849   2.906   4.530   5.118  1.6288 -1.2011  0.8541
 1915SOL     MW 6850   2.868   4.493   5.187 -0.1388 -0.1435  0.4678
 1916SOL     OW 6851   0.664   5.437   1.122 -0.0519 -0.2633 -0.3770
 1916SOL    HW1 6852   0.735   5.497   1.104 -0.8615  0.8745  0.1381
 1916SOL    HW2 6853   0.607   5.442   1.046  0.0756 -0.6726 -0.5021
 1916SOL     MW 6854   0.666   5.445   1.110 -0.1393 -0.1702 -0.3271
 1917SOL     OW 6855   0.488   4.884   3.923 -0.0022 -0.1044 -0.1910
 1917SOL    HW1 6856   0.476   4.873   3.829  0.2737  0.4685 -0.2967
 1917SOL    HW2 6857   0.486   4.979   3.936 -0.3944 -0.1933  0.4258
 1917SOL     MW 6858   0.486   4.895   3.913 -0.0170 -0.0424 -0.1254
 1918SOL     OW 6859   1.732   1.814   1.180  0.2659  0.6045  0.1169
 1918SOL    HW1 6860   1.692   1.900   1.188 -0.1391  0.4781 -0.5443
 1918SOL    HW2 6861   1.668   1.762   1.132  0.5896 -0.0146  0.3505
 1918SOL     MW 6862   1.719   1.818   1.175  0.2555  0.5090  0.0622
 1919SOL     OW 6863   1.608   0.820   4.109 -0.2989 -0.1803  0.1542
 1919SOL    HW1 6864   1.689   0.817   4.057  0.2284  2.5668  0.7837
 1919SOL    HW2 6865   1.629   0.877   4.183 -2.0748 -1.4356  1.6510
 1919SOL     MW 6866   1.621   0.827   4.112 -0.4588  0.0107  0.4268
 1920SOL     OW 6867   3.690   0.339   4.285  0.0233 -0.0431  0.0304
 1920SOL    HW1 6868   3.686   0.378   4.198  1.7774  0.9968  0.3904
 1920SOL    HW2 6869   3.619   0.380   4.334  0.2989  0.8536 -0.3215
 1920SOL     MW 6870   3.681   0.349   4.280  0.2832  0.2048  0.0319
 1921SOL     OW 6871   3.373   3.351   1.770 -0.3923 -0.2400  0.0027
 1921SOL    HW1 6872   3.458   3.312   1.750 -0.7502 -0.6469 -0.7502
 1921SOL    HW2 6873   3.332   3.289   1.830  0.3504  0.5816  1.3876
 1921SOL     MW 6874   3.379   3.338   1.775 -0.3431 -0.1869  0.0834
 1922SOL     OW 6875   3.298   1.314   1.647 -0.4241 -0.5226  0.5537
 1922SOL    HW1 6876   3.320   1.327   1.739  1.4350 -0.0499  0.0519
 1922SOL    HW2 6877   3.316   1.398   1.606  2.0694 -1.6836 -0.8567
 1922SOL     MW 6878   3.303   1.326   1.654  0.1333 -0.6106  0.3088
 1923SOL     OW 6879   2.515   3.988   3.695 -0.1026 -0.1806 -0.2969
 1923SOL    HW1 6880   2.460   4.052   3.740  0.3108 -0.1278  0.1395
 1923SOL    HW2 6881   2.477   3.903   3.718  0.3984 -0.1775  0.5457
 1923SOL     MW 6882   2.503   3.985   3.704  0.0145 -0.1731 -0.1333
 1924SOL     OW 6883   2.321   0.129   5.657  0.1414 -0.3848  0.2918
 1924SOL    HW1 6884   2.360   0.207   5.617 -1.5533  0.5905  0.5194
 1924SOL    HW2 6885   2.312   0.067   5.585  0.6936 -0.0594 -0.0646
 1924SOL     MW 6886   2.325   0.131   5.643 -0.0048 -0.2183  0.2756
 1925SOL     OW 6887   4.192   5.186   3.106 -0.5520 -0.4189  0.2655
 1925SOL    HW1 6888   4.144   5.144   3.177 -0.2618 -2.9308 -0.9556
 1925SOL    HW2 6889   4.283   5.190   3.139 -0.3464 -1.9069 -0.0646
 1925SOL     MW 6890   4.198   5.181   3.120 -0.4888 -0.9313  0.0672
 1926SOL     OW 6891   4.765   3.037   4.520 -1.0402  0.2958  0.2478
 1926SOL    HW1 6892   4.780   3.061   4.611 -2.0402 -0.8322  0.7282
 1926SOL    HW2 6893   4.789   2.944   4.515  1.7029  1.0612 -1.3107
 1926SOL     MW 6894   4.770   3.028   4.531 -0.8173  0.2494  0.1097
 1927SOL     OW 6895   5.410   1.102   0.438  0.0084 -0.2909  0.3448
 1927SOL    HW1 6896   5.446   1.155   0.509 -1.0012  1.5610 -0.4846
 1927SOL    HW2 6897   5.394   1.165   0.367 -0.0006 -1.9297 -1.1319
 1927SOL     MW 6898   5.413   1.117   0.438 -0.1221 -0.2636  0.0496
 1928SOL     OW 6899   4.863   5.794   1.342  0.4717 -0.6807 -0.1570
 1928SOL    HW1 6900   4.875   5.703   1.314 -1.3523 -1.1592  0.5400
 1928SOL    HW2 6901   4.924   5.804   1.416 -0.0662 -1.6556  0.4257
 1928SOL     MW 6902   4.873   5.783   1.348  0.1693 -0.8674  0.0066
 1929SOL     OW 6903   1.772   3.863   2.256 -0.8545  0.5302 -0.1818
 1929SOL    HW1 6904   1.760   3.950   2.219 -0.6873  1.2336  1.4178
 1929SOL    HW2 6905   1.708   3.809   2.209 -0.7665  1.4333 -1.3750
 1929SOL     MW 6906   1.762   3.867   2.245 -0.8217  0.7360 -0.1295
 1930SOL     OW 6907   1.278   1.087   4.426  0.6479 -0.1595  0.3722
 1930SOL    HW1 6908   1.291   1.009   4.372 -0.7631  0.2800 -0.6423
 1930SOL    HW2 6909   1.285   1.056   4.516  0.6716 -1.3424 -0.0282
 1930SOL     MW 6910   1.281   1.073   4.430  0.4704 -0.2545  0.1912
 1931SOL     OW 6911   2.743   5.455   4.754 -0.0774 -0.0836 -0.5292
 1931SOL    HW1 6912   2.800   5.524   4.791 -0.7742  0.6830 -0.8720
 1931SOL    HW2 6913   2.685   5.502   4.694 -2.8839 -0.4556  1.8282
 1931SOL     MW 6914   2.743   5.470   4.751 -0.5260 -0.0334 -0.2713
 1932SOL     OW 6915   3.316   3.943   2.645  0.6873 -0.0093  0.1596
 1932SOL    HW1 6916   3.403   3.964   2.679  0.7765  0.4753 -0.3623
 1932SOL    HW2 6917   3.307   3.997   2.567  0.0403 -0.2925  0.0346
 1932SOL     MW 6918   3.326   3.953   2.640  0.6161  0.0165  0.0768
 1933SOL     OW 6919   3.566   0.810   1.015 -0.1158 -0.7838  0.6518
 1933SOL    HW1 6920   3.484   0.859   1.024 -0.0731 -0.9433  2.0468
 1933SOL    HW2 6921   3.620   0.865   0.959  0.0928  1.0075  2.5408
 1933SOL     MW 6922   3.562   0.823   1.009 -0.0837 -0.5749  1.0723
 1934SOL     OW 6923   5.218   0.830   2.249 -0.0589 -0.6945 -0.0481
 1934SOL    HW1 6924   5.214   0.772   2.173  0.7584  0.9430 -1.3568
 1934SOL    HW2 6925   5.203   0.772   2.324 -0.3223 -2.4145 -1.4083
 1934SOL     MW 6926   5.215   0.815   2.249  0.0114 -0.7050 -0.3898
 1935SOL     OW 6927   1.436   3.573   2.640  0.4613  0.2790  0.1368
 1935SOL    HW1 6928   1.511   3.517   2.663 -0.4471 -0.2819  1.8699
 1935SOL    HW2 6929   1.390   3.524   2.572  0.0538 -0.7876  1.1586
 1935SOL     MW 6930   1.440   3.559   2.635  0.2928  0.0706  0.4897
 1936SOL     OW 6931   2.434   2.654   2.955  0.5638 -0.1138  0.3029
 1936SOL    HW1 6932   2.341   2.676   2.961  0.1869 -1.4936 -0.1854
 1936SOL    HW2 6933   2.446   2.586   3.021  0.8125 -1.2473 -0.8900
 1936SOL     MW 6934   2.423   2.648   2.964  0.5476 -0.4358  0.0875
 1937SOL     OW 6935   5.721   5.333   3.739  0.5506  0.1494  0.3528
 1937SOL    HW1 6936   5.703   5.242   3.763  0.3938  0.4960  1.5936
 1937SOL    HW2 6937   5.637   5.366   3.705  0.5070 -0.0636  0.2542
 1937SOL     MW 6938   5.708   5.326   3.738  0.5250  0.1669  0.4990
 1938SOL     OW 6939   5.010   3.240   5.084  0.2037 -0.4178  0.5617
 1938SOL    HW1 6940   4.978   3.303   5.149 -1.9783  1.3551 -2.1347
 1938SOL    HW2 6941   4.965   3.264   5.003  1.5954 -3.6171 -1.2464
 1938SOL     MW 6942   5.000   3.251   5.082  0.1025 -0.6003 -0.0148
 1939SOL     OW 6943   1.407   5.095   4.303 -0.5552  0.5781  0.8025
 1939SOL    HW1 6944   1.349   5.162   4.339 -0.1337  2.3275 -1.5933
 1939SOL    HW2 6945   1.360   5.062   4.226  0.8855  0.8381 -0.2038
 1939SOL     MW 6946   1.394   5.100   4.297 -0.3167  0.8349  0.3667
 1940SOL     OW 6947   2.794   3.518   5.627  0.3161 -0.1204  0.9295
 1940SOL    HW1 6948   2.761   3.438   5.668  1.0314  0.1294  2.0157
 1940SOL    HW2 6949   2.822   3.491   5.539 -0.8479 -0.7454  0.7439
 1940SOL     MW 6950   2.794   3.505   5.621  0.2589 -0.1686  1.0448
 1941SOL     OW 6951   0.414   0.154   2.836  1.0363  0.2511  0.8292
 1941SOL    HW1 6952   0.347   0.202   2.788 -0.2805 -1.2044  1.1425
 1941SOL    HW2 6953   0.418   0.197   2.921  1.5214  1.2247  0.3200
 1941SOL     MW 6954   0.406   0.165   2.841  0.9299  0.1894  0.8042
 1942SOL     OW 6955   0.116   5.989   4.317  0.5334 -0.0562  0.0375
 1942SOL    HW1 6956   0.203   6.018   4.289 -0.5003  2.0379 -1.1963
 1942SOL    HW2 6957   0.086   5.932   4.246  0.6595 -0.3048  0.1825
 1942SOL     MW 6958   0.123   5.986   4.304  0.4172  0.1798 -0.1020
 1943SOL     OW 6959   0.705   3.648   5.310 -0.1700  0.9283  0.3969
 1943SOL    HW1 6960   0.776   3.596   5.349 -1.2994 -0.5546  0.4918
 1943SOL    HW2 6961   0.625   3.611   5.346 -1.0720  1.8870 -0.5685
 1943SOL     MW 6962   0.704   3.637   5.320 -0.4300  0.8612  0.2851
 1944SOL     OW 6963   1.595   4.792   4.619 -0.1372 -0.2061 -0.4102
 1944SOL    HW1 6964   1.610   4.780   4.525  0.6359 -0.5305 -0.2470
 1944SOL    HW2 6965   1.501   4.779   4.630 -0.4119  0.9096 -1.3020
 1944SOL     MW 6966   1.585   4.789   4.608 -0.0734 -0.1049 -0.5040
 1945SOL     OW 6967   0.861   1.951   0.538 -0.3265 -0.0101 -0.1297
 1945SOL    HW1 6968   0.883   1.884   0.603 -0.7637  0.5951  0.6603
 1945SOL    HW2 6969   0.794   1.911   0.483 -0.5548 -0.2347  0.3151
 1945SOL     MW 6970   0.855   1.937   0.539 -0.4117  0.0386  0.0284
 1946SOL     OW 6971   2.676   3.066   3.278 -0.4052  0.0154  0.3907
 1946SOL    HW1 6972   2.772   3.060   3.279 -0.3344  1.1264  0.0109
 1946SOL    HW2 6973   2.647   2.976   3.294  0.6903 -0.8612 -2.2219
 1946SOL     MW 6974   2.685   3.054   3.280 -0.2561  0.0455  0.0074
 1947SOL     OW 6975   3.214   1.621   0.962  0.3923  0.0125  0.4845
 1947SOL    HW1 6976   3.302   1.587   0.947  0.7601  1.2382 -0.2041
 1947SOL    HW2 6977   3.182   1.645   0.875 -0.7775 -0.7546  0.6824
 1947SOL     MW 6978   3.221   1.620   0.949  0.2897  0.0713  0.4216
 1948SOL     OW 6979   0.810   2.811   3.318  0.6223  0.0253 -0.3527
 1948SOL    HW1 6980   0.872   2.768   3.260  0.1096 -0.1700 -0.7605
 1948SOL    HW2 6981   0.724   2.783   3.286  0.3635 -1.1559  1.3064
 1948SOL     MW 6982   0.807   2.802   3.307  0.5236 -0.1509 -0.1924
 1949SOL     OW 6983   0.983   3.585   3.664  0.2531  0.5157  0.2166
 1949SOL    HW1 6984   1.036   3.593   3.585  1.0671 -0.1725  0.6888
 1949SOL    HW2 6985   0.962   3.492   3.670  1.3738  0.3413  1.5738
 1949SOL     MW 6986   0.987   3.574   3.655  0.5008  0.4055  0.4508
 1950SOL     OW 6987   3.696   4.703   2.559 -0.1694 -0.1450 -0.1454
 1950SOL    HW1 6988   3.627   4.745   2.507  1.4129  1.8537 -0.6807
 1950SOL    HW2 6989   3.659   4.618   2.583 -2.3395  0.3834 -1.4626
 1950SOL     MW 6990   3.682   4.697   2.556 -0.2446  0.1783 -0.3827
 1951SOL     OW 6991   4.647   0.688   5.005 -0.4067 -0.2782 -0.4340
 1951SOL    HW1 6992   4.605   0.625   4.948 -0.9507 -0.6150  0.3337
 1951SOL    HW2 6993   4.672   0.760   4.947 -1.1483 -0.5171 -1.0511
 1951SOL     MW 6994   4.645   0.689   4.990 -0.5713 -0.3519 -0.4148
 1952SOL     OW 6995   3.764   2.064   1.695 -0.2949 -0.4106 -0.3867
 1952SOL    HW1 6996   3.764   2.074   1.600 -0.0100 -1.9032 -0.5516
 1952SOL    HW2 6997   3.785   2.152   1.728  0.1768 -0.0090 -1.7129
 1952SOL     MW 6998   3.767   2.077   1.687 -0.1981 -0.5505 -0.5777
 1953SOL     OW 6999   0.262   5.110   1.192 -0.2946 -0.1255 -0.1218
 1953SOL    HW1 7000   0.334   5.144   1.245  0.2592  0.7642 -1.4339
 1953SOL    HW2 7001   0.288   5.020   1.171  0.0686 -0.0614  0.0614
 1953SOL     MW 7002   0.274   5.103   1.196 -0.1772 -0.0029 -0.2663
 1954SOL     OW 7003   0.130   4.082   5.671 -0.4243 -0.0260  0.5514
 1954SOL    HW1 7004   0.213   4.128   5.664  0.7054 -2.2610 -1.8041
 1954SOL    HW2 7005   0.064   4.151   5.666  1.2435  1.5522 -0.6202
 1954SOL     MW 7006   0.132   4.096   5.669 -0.0662 -0.1101  0.1006
 1955SOL     OW 7007   5.587   0.601   4.860  0.3023 -0.2765  0.8447
 1955SOL    HW1 7008   5.592   0.569   4.770 -2.7180  1.2153  0.0841
 1955SOL    HW2 7009   5.662   0.660   4.869 -0.1899  0.6988 -1.1851
 1955SOL     MW 7010   5.597   0.605   4.850 -0.1473  0.0393  0.4873
 1956SOL     OW 7011   1.834   3.168   2.621 -0.3731  0.1920 -0.0344
 1956SOL    HW1 7012   1.892   3.174   2.697 -1.0750  0.7803  0.4675
 1956SOL    HW2 7013   1.891   3.142   2.549  0.2071 -0.8993  0.8082
 1956SOL     MW 7014   1.849   3.166   2.622 -0.3887  0.1276  0.1378
 1957SOL     OW 7015   5.391   4.276   2.217  0.3190 -0.2463  0.5675
 1957SOL    HW1 7016   5.417   4.226   2.294 -0.5955 -0.7418  0.5582
 1957SOL    HW2 7017   5.453   4.249   2.149  1.1522  0.2204  1.1252
 1957SOL     MW 7018   5.402   4.267   2.218  0.3085 -0.2503  0.6378
 1958SOL     OW 7019   1.385   4.300   5.547  0.0373 -0.1777  0.4011
 1958SOL    HW1 7020   1.389   4.206   5.565  0.0641  0.0656  1.6992
 1958SOL    HW2 7021   1.294   4.324   5.567  0.1450  0.1512  0.4983
 1958SOL     MW 7022   1.374   4.291   5.552  0.0545 -0.1040  0.5798
 1959SOL     OW 7023   1.216   2.736   2.128 -0.1647  0.1881 -0.1094
 1959SOL    HW1 7024   1.126   2.759   2.154  0.1125  0.8485  0.2886
 1959SOL    HW2 7025   1.227   2.775   2.042 -0.0525  0.6387  0.1084
 1959SOL     MW 7026   1.206   2.744   2.121 -0.1148  0.3304 -0.0308
 1960SOL     OW 7027   1.176   3.727   3.862  0.6736  0.4615 -0.3060
 1960SOL    HW1 7028   1.119   3.680   3.801  1.0137  0.5618 -0.7069
 1960SOL    HW2 7029   1.217   3.794   3.808 -0.0399  1.4213  0.3160
 1960SOL     MW 7030   1.174   3.730   3.847  0.6258  0.5972 -0.2775
 1961SOL     OW 7031   4.489   2.749   2.966 -0.0081 -0.2169 -0.0496
 1961SOL    HW1 7032   4.563   2.786   2.917 -0.5991  1.1200  0.0392
 1961SOL    HW2 7033   4.481   2.660   2.933  0.4265  0.2466 -1.4830
 1961SOL     MW 7034   4.498   2.743   2.955 -0.0277  0.0136 -0.2222
 1962SOL     OW 7035   4.810   4.605   4.695  0.3997 -0.8061  0.0860
 1962SOL    HW1 7036   4.731   4.648   4.661 -0.7851 -2.1366  1.0769
 1962SOL    HW2 7037   4.825   4.532   4.636  1.8519  0.3548 -1.0312
 1962SOL     MW 7038   4.802   4.601   4.683  0.4334 -0.8273  0.0701
 1963SOL     OW 7039   5.912   0.178   1.702 -0.4581 -0.5006 -0.1584
 1963SOL    HW1 7040   5.926   0.086   1.679 -0.4438 -0.0363 -2.0301
 1963SOL    HW2 7041   5.901   0.177   1.797  1.4004 -2.2093  0.0742
 1963SOL     MW 7042   5.912   0.166   1.711 -0.2184 -0.6599 -0.3682
 1964SOL     OW 7043   0.369   0.393   5.681  0.4414 -0.5670  0.3765
 1964SOL    HW1 7044   0.302   0.453   5.715  0.8976 -0.0491  0.3802
 1964SOL    HW2 7045   0.320   0.332   5.625 -0.2084 -0.9996  1.4150
 1964SOL     MW 7046   0.354   0.393   5.678  0.4166 -0.5561  0.5097
 1965SOL     OW 7047   3.624   4.852   5.538 -0.4696  0.1129 -0.2320
 1965SOL    HW1 7048   3.657   4.824   5.623  0.4823 -0.3961 -0.7561
 1965SOL    HW2 7049   3.557   4.788   5.515  3.0785 -3.0887 -2.3526
 1965SOL     MW 7050   3.620   4.840   5.546  0.1066 -0.3614 -0.5708
 1966SOL     OW 7051   2.093   3.999   3.866 -0.0714 -0.1193 -0.5596
 1966SOL    HW1 7052   2.100   3.944   3.945 -0.6376 -1.0138 -1.1279
 1966SOL    HW2 7053   2.067   3.939   3.797  0.0998  0.7291 -1.3687
 1966SOL     MW 7054   2.091   3.985   3.868 -0.1221 -0.1252 -0.7358
 1967SOL     OW 7055   3.536   2.825   1.559 -0.0221  0.0839 -0.1814
 1967SOL    HW1 7056   3.602   2.845   1.492 -0.4250  1.7183 -0.1070
 1967SOL    HW2 7057   3.566   2.871   1.637 -1.2930  0.8999 -0.1745
 1967SOL     MW 7058   3.548   2.833   1.560 -0.2365  0.3974 -0.1711
 1968SOL     OW 7059   5.992   5.595   1.458  0.0069  0.6497  0.0515
 1968SOL    HW1 7060   5.905   5.592   1.499  0.9992  0.2826  2.1962
 1968SOL    HW2 7061   5.985   5.535   1.384 -0.9885 -1.0030  1.4316
 1968SOL     MW 7062   5.980   5.587   1.454  0.0065  0.3915  0.5027
 1969SOL     OW 7063   5.528   1.185   4.715  0.3728 -0.5980  0.5004
 1969SOL    HW1 7064   5.488   1.099   4.704 -1.3544  0.0980  1.0723
 1969SOL    HW2 7065   5.578   1.177   4.797 -0.3754 -0.8490  0.9402
 1969SOL     MW 7066   5.529   1.173   4.724  0.0553 -0.5412  0.6299
 1970SOL     OW 7067   3.011   3.291   1.121 -1.0122  0.0764  0.4121
 1970SOL    HW1 7068   2.990   3.369   1.069 -2.5760  0.9899  2.3413
 1970SOL    HW2 7069   3.060   3.325   1.196  1.5586 -1.2713 -0.5949
 1970SOL     MW 7070   3.015   3.306   1.124 -0.8833  0.0205  0.5302
 1971SOL     OW 7071   3.434   3.942   5.519 -0.7068 -0.8439  0.1975
 1971SOL    HW1 7072   3.360   3.882   5.530 -1.0134 -0.7430 -1.1649
 1971SOL    HW2 7073   3.394   4.024   5.490  0.0548 -1.3211 -2.3514
 1971SOL     MW 7074   3.420   3.945   5.517 -0.6485 -0.8922 -0.3033
 1972SOL     OW 7075   5.136   4.013   3.117 -0.4235  0.1563  0.6222
 1972SOL    HW1 7076   5.067   3.950   3.100  1.2238 -1.3866 -0.5537
 1972SOL    HW2 7077   5.138   4.069   3.039  1.5568 -1.6492 -0.6772
 1972SOL     MW 7078   5.128   4.012   3.104  0.0405 -0.2718  0.3052
 1973SOL     OW 7079   0.483   4.207   0.789 -0.2154  0.3519 -0.6214
 1973SOL    HW1 7080   0.578   4.202   0.779 -0.2244  2.2178 -1.9182
 1973SOL    HW2 7081   0.449   4.184   0.703 -0.8826  0.9434 -0.5259
 1973SOL     MW 7082   0.491   4.204   0.777 -0.3020  0.6666 -0.7752
 1974SOL     OW 7083   3.094   0.334   3.597  0.2899 -0.1048  0.3629
 1974SOL    HW1 7084   3.132   0.267   3.539 -2.1805 -0.9343 -0.3663
 1974SOL    HW2 7085   3.153   0.409   3.588  1.1941 -0.9938 -1.4980
 1974SOL     MW 7086   3.106   0.335   3.588  0.0892 -0.3248  0.0315
 1975SOL     OW 7087   0.367   1.104   1.766 -0.6918  0.1693 -0.0478
 1975SOL    HW1 7088   0.403   1.193   1.768  0.5666 -0.3195 -0.7653
 1975SOL    HW2 7089   0.443   1.047   1.774 -1.5153 -0.8548  0.6215
 1975SOL     MW 7090   0.381   1.108   1.767 -0.6361 -0.0244 -0.0541
 1976SOL     OW 7091   5.384   5.602   1.584  0.0516  0.6257 -0.1428
 1976SOL    HW1 7092   5.461   5.573   1.632  0.2952 -1.5312 -1.7592
 1976SOL    HW2 7093   5.354   5.680   1.631  2.5686  0.8720  1.1399
 1976SOL     MW 7094   5.390   5.608   1.596  0.4053  0.3810 -0.1855
 1977SOL     OW 7095   3.428   5.143   3.662  0.3636  0.3426 -0.1122
 1977SOL    HW1 7096   3.507   5.195   3.647  1.5024 -1.1141  0.5746
 1977SOL    HW2 7097   3.399   5.117   3.575  1.0365  0.3314 -0.3354
 1977SOL     MW 7098   3.435   5.146   3.649  0.5958  0.1550 -0.0529
 1978SOL     OW 7099   4.083   1.806   2.628  0.2479 -0.0759  0.8294
 1978SOL    HW1 7100   4.140   1.882   2.620 -1.1333  0.9941  0.8345
 1978SOL    HW2 7101   4.053   1.807   2.719 -2.1090  1.1378  0.0832
 1978SOL     MW 7102   4.086   1.816   2.638 -0.2298  0.2165  0.7343
 1979SOL     OW 7103   3.176   5.199   4.363 -0.5221 -0.1803 -0.4417
 1979SOL    HW1 7104   3.143   5.207   4.274 -0.1922 -1.1170 -0.6492
 1979SOL    HW2 7105   3.209   5.110   4.369 -2.3933 -0.7964  1.2443
 1979SOL     MW 7106   3.176   5.189   4.353 -0.7193 -0.3791 -0.2527
 1980SOL     OW 7107   5.660   1.145   3.655 -0.2889 -0.1578  0.0527
 1980SOL    HW1 7108   5.676   1.071   3.597 -0.3043 -0.7578  0.8080
 1980SOL    HW2 7109   5.566   1.142   3.672 -0.1183 -0.6109  0.9435
 1980SOL     MW 7110   5.650   1.135   3.650 -0.2694 -0.2925  0.2635
 1981SOL     OW 7111   2.871   3.176   0.818  0.1540 -0.0861 -0.3896
 1981SOL    HW1 7112   2.911   3.197   0.902 -2.2937 -0.1432  0.8308
 1981SOL    HW2 7113   2.787   3.222   0.819 -0.9373 -1.9567 -1.8300
 1981SOL     MW 7114   2.865   3.185   0.829 -0.2990 -0.3326 -0.4178
 1982SOL     OW 7115   1.662   2.229   2.890  0.4317  0.7001  0.1779
 1982SOL    HW1 7116   1.652   2.322   2.912  0.7396  0.5080  1.1888
 1982SOL    HW2 7117   1.614   2.183   2.960 -1.6179  0.1621 -1.5455
 1982SOL     MW 7118   1.655   2.235   2.902  0.2086  0.6068  0.0868
 1983SOL     OW 7119   0.055   5.622   4.082  0.1765  0.0944 -0.0264
 1983SOL    HW1 7120   0.138   5.614   4.036  1.8508 -0.3360  2.9630
 1983SOL    HW2 7121   0.022   5.532   4.088  0.5319  0.0032  0.6084
 1983SOL     MW 7122   0.061   5.609   4.077  0.4363  0.0272  0.4373
 1984SOL     OW 7123   1.316   3.850   3.469 -0.2649  0.0574  0.1494
 1984SOL    HW1 7124   1.287   3.759   3.457  0.7340 -0.4829  1.7226
 1984SOL    HW2 7125   1.305   3.867   3.562 -0.4768  1.5929 -0.1321
 1984SOL     MW 7126   1.311   3.841   3.479 -0.1640  0.1848  0.3147
 1985SOL     OW 7127   5.401   5.817   4.572 -0.2371 -0.7010  0.2782
 1985SOL    HW1 7128   5.326   5.769   4.536 -1.5820  1.1860  0.4399
 1985SOL    HW2 7129   5.436   5.865   4.498 -0.3209 -0.1745  0.5775
 1985SOL     MW 7130   5.396   5.817   4.558 -0.4196 -0.3920  0.3376
 1986SOL     OW 7131   3.810   3.410   5.399 -0.6441 -0.4083  0.2456
 1986SOL    HW1 7132   3.832   3.369   5.483 -0.6386 -0.8617  0.0251
 1986SOL    HW2 7133   3.746   3.478   5.422  0.7181  0.6848  0.8454
 1986SOL     MW 7134   3.805   3.414   5.413 -0.4690 -0.3264  0.2937
 1987SOL     OW 7135   2.801   5.004   0.738  0.5246  0.9844 -0.3161
 1987SOL    HW1 7136   2.793   5.088   0.782 -1.1747  1.3610 -1.3066
 1987SOL    HW2 7137   2.865   4.955   0.791 -0.8885  1.6939  2.1328
 1987SOL     MW 7138   2.808   5.008   0.751  0.1264  1.1234 -0.1294
 1988SOL     OW 7139   0.912   0.551   1.485  0.2340 -0.3070 -0.0023
 1988SOL    HW1 7140   0.959   0.493   1.545  0.9129 -0.7185 -0.9219
 1988SOL    HW2 7141   0.964   0.632   1.486 -0.3425  0.0684  0.7630
 1988SOL     MW 7142   0.925   0.554   1.493  0.2470 -0.3116 -0.0221
 1989SOL     OW 7143   2.599   1.438   3.763  0.2995 -0.0832 -0.5204
 1989SOL    HW1 7144   2.542   1.361   3.754  0.9214 -0.5849 -0.1743
 1989SOL    HW2 7145   2.558   1.489   3.834  1.2546 -1.3225  0.9540
 1989SOL     MW 7146   2.586   1.435   3.771  0.5012 -0.3061 -0.2873
 1990SOL     OW 7147   4.539   2.544   2.343  0.0132 -0.0183 -0.0461
 1990SOL    HW1 7148   4.601   2.615   2.330  0.0088  0.6443  3.1303
 1990SOL    HW2 7149   4.586   2.466   2.313  1.7064  0.7207  0.6413
 1990SOL     MW 7150   4.553   2.543   2.337  0.2294  0.1612  0.4485
 1991SOL     OW 7151   4.908   0.737   2.539 -0.0337 -0.9395 -0.4339
 1991SOL    HW1 7152   4.873   0.675   2.474  0.1736 -1.9495  0.4081
 1991SOL    HW2 7153   4.854   0.723   2.617 -1.0439  1.0983 -0.7278
 1991SOL     MW 7154   4.896   0.727   2.540 -0.1364 -0.8079 -0.3636
 1992SOL     OW 7155   0.346   4.406   2.446 -0.3548 -0.2824 -0.2825
 1992SOL    HW1 7156   0.367   4.334   2.505  0.6291  0.7679  0.6721
 1992SOL    HW2 7157   0.415   4.471   2.462 -2.9121  2.1809  1.0551
 1992SOL     MW 7158   0.358   4.405   2.456 -0.5562  0.1674  0.0110
 1993SOL     OW 7159   5.482   0.462   2.452  0.2766 -0.1892  0.0933
 1993SOL    HW1 7160   5.466   0.529   2.386 -0.4894  0.0768  0.5544
 1993SOL    HW2 7161   5.578   0.455   2.456  0.3347 -0.5677 -1.4058
 1993SOL     MW 7162   5.492   0.469   2.444  0.1864 -0.2036 -0.0393
 1994SOL     OW 7163   0.922   2.842   1.752  0.4280  0.5522 -0.1987
 1994SOL    HW1 7164   0.911   2.754   1.790 -0.8832  0.1287 -1.4802
 1994SOL    HW2 7165   0.838   2.859   1.710  0.5411  2.6073  0.3716
 1994SOL     MW 7166   0.910   2.833   1.752  0.2746  0.7610 -0.2899
 1995SOL     OW 7167   1.185   4.292   0.041  0.2043 -0.0016  0.1199
 1995SOL    HW1 7168   1.124   4.315   0.111 -1.2263  0.5669 -1.2880
 1995SOL    HW2 7169   1.228   4.375   0.018 -0.4632  0.1164 -0.7282
 1995SOL     MW 7170   1.183   4.306   0.047 -0.0641  0.0858 -0.1689
 1996SOL     OW 7171   4.448   0.380   1.965  0.0768  0.2800 -0.0676
 1996SOL    HW1 7172   4.388   0.307   1.977 -0.4098  0.6538 -0.2050
 1996SOL    HW2 7173   4.394   0.450   1.928  0.6081  0.5995 -0.2462
 1996SOL     MW 7174   4.433   0.380   1.962  0.0825  0.3687 -0.1081
 1997SOL     OW 7175   4.136   2.886   3.933 -0.0276  0.2504 -0.4092
 1997SOL    HW1 7176   4.105   2.798   3.912 -0.7834  0.2576  0.6405
 1997SOL    HW2 7177   4.061   2.928   3.976  1.3127  0.3579  1.9247
 1997SOL     MW 7178   4.122   2.880   3.936  0.0477  0.2649  0.0236
 1998SOL     OW 7179   5.821   4.332   4.681  0.2560  0.5510 -0.6405
 1998SOL    HW1 7180   5.891   4.330   4.616 -0.0146  0.7857 -0.9401
 1998SOL    HW2 7181   5.819   4.422   4.712  0.4347  0.4220 -0.2489
 1998SOL     MW 7182   5.830   4.343   4.676  0.2441  0.5646 -0.6285
 1999SOL     OW 7183   4.603   0.068   2.831  0.9919 -0.5529  0.1329
 1999SOL    HW1 7184   4.558  -0.004   2.876  2.0484 -0.4007  1.4439
 1999SOL    HW2 7185   4.654   0.111   2.899  0.5905  1.2905 -0.7059
 1999SOL     MW 7186   4.604   0.064   2.845  1.0753 -0.2974  0.1934
 2000SOL     OW 7187   5.930   3.535   3.274 -0.0561 -0.2249 -0.1335
 2000SOL    HW1 7188   6.000   3.600   3.261 -1.1654  1.1206  0.4779
 2000SOL    HW2 7189   5.898   3.552   3.362 -0.6787 -1.3154 -0.1470
 2000SOL     MW 7190   5.935   3.546   3.284 -0.2780 -0.1922 -0.0572
 2001SOL     OW 7191   0.364   5.173   3.231 -0.3858  0.0923  0.6192
 2001SOL    HW1 7192   0.296   5.117   3.193 -1.5590  1.2790  0.9795
 2001SOL    HW2 7193   0.444   5.146   3.185 -1.3255 -0.3585 -0.7857
 2001SOL     MW 7194   0.366   5.162   3.220 -0.6563  0.1869  0.4854
 2002SOL     OW 7195   4.090   0.855   3.209 -0.1731  0.1094 -0.2934
 2002SOL    HW1 7196   4.161   0.791   3.214 -0.0965  0.2026 -0.1430
 2002SOL    HW2 7197   4.113   0.921   3.275 -0.1963  0.3458 -0.5190
 2002SOL     MW 7198   4.102   0.856   3.218 -0.1669  0.1516 -0.3030
 2003SOL     OW 7199   0.109   5.146   2.702  0.2095  0.1633  0.3282
 2003SOL    HW1 7200   0.190   5.099   2.718 -0.0264 -0.6454 -0.7428
 2003SOL    HW2 7201   0.098   5.204   2.777  0.5689 -1.4278  1.6247
 2003SOL     MW 7202   0.118   5.147   2.713  0.2253 -0.1440  0.3572
 2004SOL     OW 7203   2.786   1.888   3.387  0.6214 -0.0257  0.1505
 2004SOL    HW1 7204   2.863   1.830   3.390 -0.4854 -1.4513  1.5826
 2004SOL    HW2 7205   2.823   1.976   3.393  2.2758 -0.5932 -1.1789
 2004SOL     MW 7206   2.801   1.892   3.388  0.6917 -0.2809  0.1640
 2005SOL     OW 7207   4.268   3.382   2.507  0.0683  0.2499  0.0087
 2005SOL    HW1 7208   4.216   3.458   2.482 -0.6452 -0.9435 -2.1697
 2005SOL    HW2 7209   4.217   3.339   2.575  0.3593  1.5373  1.0801
 2005SOL     MW 7210   4.255   3.386   2.513  0.0143  0.2620 -0.1330
 2006SOL     OW 7211   5.862   4.082   3.489  0.2131  0.4602 -0.7695
 2006SOL    HW1 7212   5.820   4.038   3.415  3.3435  0.8478 -2.9072
 2006SOL    HW2 7213   5.941   4.031   3.506  0.0299  0.9399  1.7073
 2006SOL     MW 7214   5.867   4.070   3.481  0.5903  0.5717 -0.7262
 2007SOL     OW 7215   4.910   4.854   1.742  0.1850  0.4488  0.3470
 2007SOL    HW1 7216   4.909   4.940   1.700 -2.4566  0.7677  0.9860
 2007SOL    HW2 7217   4.933   4.793   1.671  3.1647  1.7364  0.1239
 2007SOL     MW 7218   4.913   4.857   1.727  0.2284  0.6547  0.4002
 2008SOL     OW 7219   2.059   3.912   0.577 -0.6063  0.0337  0.5508
 2008SOL    HW1 7220   2.120   3.960   0.521 -0.6609  1.3256  1.5752
 2008SOL    HW2 7221   2.115   3.852   0.626 -0.4314 -0.3464 -0.1094
 2008SOL     MW 7222   2.074   3.910   0.576 -0.5908  0.1504  0.5974
 2009SOL     OW 7223   3.943   3.864   4.650  0.7100  0.6276 -0.3135
 2009SOL    HW1 7224   4.016   3.926   4.655  0.2753  1.2708 -1.6326
 2009SOL    HW2 7225   3.933   3.831   4.739  2.7058  0.4131 -0.1342
 2009SOL     MW 7226   3.951   3.867   4.662  0.9098  0.6824 -0.4592
 2010SOL     OW 7227   3.658   5.564   3.551 -0.7078  0.2035  0.0795
 2010SOL    HW1 7228   3.747   5.571   3.517 -1.0232  2.5112 -0.3315
 2010SOL    HW2 7229   3.665   5.589   3.643 -1.0172  0.8707 -0.0791
 2010SOL     MW 7230   3.670   5.568   3.558 -0.7877  0.5846  0.0064
 2011SOL     OW 7231   2.849   3.782   3.392 -0.1545  0.1009  0.0416
 2011SOL    HW1 7232   2.825   3.841   3.321  3.1830 -0.7043 -1.8830
 2011SOL    HW2 7233   2.903   3.835   3.451  1.9010 -0.6129 -1.1078
 2011SOL     MW 7234   2.853   3.796   3.391  0.5360 -0.0937 -0.3519
 2012SOL     OW 7235   5.289   5.769   2.871  0.2651 -0.5666 -0.1135
 2012SOL    HW1 7236   5.240   5.811   2.943 -0.9034 -2.9672  0.5292
 2012SOL    HW2 7237   5.254   5.809   2.792  0.5293  1.0476  0.5541
 2012SOL     MW 7238   5.278   5.780   2.870  0.1493 -0.6676  0.0544
 2013SOL     OW 7239   1.275   1.776   3.034  0.3730  1.3131 -0.0452
 2013SOL    HW1 7240   1.329   1.703   3.004 -0.4653  0.9270 -0.6417
 2013SOL    HW2 7241   1.336   1.848   3.048  1.2005  0.5105  0.4962
 2013SOL     MW 7242   1.289   1.776   3.032  0.3717  1.1609 -0.0525
 2014SOL     OW 7243   4.765   4.539   2.311 -0.0873  0.0136 -0.5921
 2014SOL    HW1 7244   4.740   4.490   2.390  1.7684  1.9748  1.2518
 2014SOL    HW2 7245   4.808   4.474   2.256 -0.7876 -1.2237  0.2883
 2014SOL     MW 7246   4.767   4.524   2.314  0.0606  0.1063 -0.2434
 2015SOL     OW 7247   1.467   5.033   2.912 -0.6335 -0.4426  0.0176
 2015SOL    HW1 7248   1.470   5.090   2.835  0.1623  0.6042  0.8010
 2015SOL    HW2 7249   1.535   4.967   2.896 -1.6615 -1.2726 -0.9649
 2015SOL     MW 7250   1.476   5.032   2.900 -0.6634 -0.4148 -0.0081
 2016SOL     OW 7251   4.574   0.787   0.664  0.2437  0.2613  0.3279
 2016SOL    HW1 7252   4.546   0.844   0.736  0.3032  0.5177  0.1454
 2016SOL    HW2 7253   4.606   0.846   0.597 -2.3392  0.1832 -1.0289
 2016SOL     MW 7254   4.574   0.801   0.665 -0.0796  0.2842  0.1308
 2017SOL     OW 7255   1.368   2.922   2.995  0.0252 -0.2595  0.1958
 2017SOL    HW1 7256   1.434   2.888   2.934  0.7157 -0.3235  0.9660
 2017SOL    HW2 7257   1.336   2.845   3.041 -1.0637 -0.3045 -0.6394
 2017SOL     MW 7258   1.373   2.908   2.993 -0.0257 -0.2737  0.1874
 2018SOL     OW 7259   5.448   2.958   1.936  0.2593  0.6491  0.0792
 2018SOL    HW1 7260   5.523   3.017   1.947  0.0098  0.5111  2.9711
 2018SOL    HW2 7261   5.374   3.007   1.970 -0.2742 -0.6394  0.8171
 2018SOL     MW 7262   5.448   2.972   1.942  0.1588  0.4666  0.5438
 2019SOL     OW 7263   0.203   1.533   5.045  0.2463  0.2848  0.1425
 2019SOL    HW1 7264   0.130   1.544   4.985 -0.6728  0.5584  1.2928
 2019SOL    HW2 7265   0.165   1.495   5.124  1.7414 -1.7433 -0.0754
 2019SOL     MW 7266   0.189   1.530   5.048  0.3200  0.0601  0.2618
 2020SOL     OW 7267   5.180   2.759   0.795  0.1565  0.5181 -0.7883
 2020SOL    HW1 7268   5.091   2.794   0.801 -1.7685 -4.0934 -0.7177
 2020SOL    HW2 7269   5.190   2.734   0.703  0.5089 -1.0717 -0.3318
 2020SOL     MW 7270   5.170   2.760   0.784 -0.0453 -0.2759 -0.7208
 2021SOL     OW 7271   0.208   5.718   1.987  0.2516 -0.1885 -0.1415
 2021SOL    HW1 7272   0.117   5.729   1.958  0.2542  2.1502  0.5758
 2021SOL    HW2 7273   0.201   5.681   2.075  0.0152 -0.5424 -0.3074
 2021SOL     MW 7274   0.195   5.715   1.994  0.2217  0.0658 -0.0708
 2022SOL     OW 7275   3.409   4.242   1.383  0.3329 -0.0999  0.3960
 2022SOL    HW1 7276   3.499   4.272   1.401  0.4673 -1.2732  1.8401
 2022SOL    HW2 7277   3.416   4.197   1.299  1.5006 -1.6747  1.2870
 2022SOL     MW 7278   3.422   4.240   1.375  0.4997 -0.4516  0.6949
 2023SOL     OW 7279   5.545   3.710   3.708 -0.0159 -0.3474 -0.0434
 2023SOL    HW1 7280   5.562   3.747   3.622  0.5709  0.0725  0.2448
 2023SOL    HW2 7281   5.632   3.700   3.748 -0.3458  0.5728  0.9467
 2023SOL     MW 7282   5.558   3.713   3.702  0.0162 -0.1762  0.1202
 2024SOL     OW 7283   0.147   0.206   2.698  0.5448 -0.2806  0.0614
 2024SOL    HW1 7284   0.126   0.122   2.738 -1.6897  0.4326  0.4572
 2024SOL    HW2 7285   0.112   0.271   2.759 -0.5014  0.8736 -1.7264
 2024SOL     MW 7286   0.140   0.204   2.711  0.1248 -0.0415 -0.1168
 2025SOL     OW 7287   0.742   2.949   3.592 -0.7548  0.4059 -0.3719
 2025SOL    HW1 7288   0.688   2.884   3.637 -0.7209  0.2987 -0.4866
 2025SOL    HW2 7289   0.718   2.941   3.500 -0.5243  0.3367 -0.4272
 2025SOL     MW 7290   0.732   2.939   3.586 -0.7209  0.3831 -0.3936
 2026SOL     OW 7291   5.651   4.818   3.325 -0.1677 -0.7344  0.8082
 2026SOL    HW1 7292   5.746   4.822   3.314 -0.2022 -0.7281  0.4844
 2026SOL    HW2 7293   5.638   4.760   3.399  0.0558 -1.6267  0.1553
 2026SOL     MW 7294   5.661   4.811   3.333 -0.1431 -0.8478  0.6828
 2027SOL     OW 7295   5.948   3.253   0.277  0.1783 -0.0220 -0.3746
 2027SOL    HW1 7296   5.981   3.163   0.272  0.2686  0.0367 -0.8388
 2027SOL    HW2 7297   5.871   3.253   0.221 -0.3233 -0.0320  0.3190
 2027SOL     MW 7298   5.943   3.241   0.269  0.1264 -0.0155 -0.3453
 2028SOL     OW 7299   2.287   3.774   2.597 -0.5654 -0.2083 -0.0672
 2028SOL    HW1 7300   2.278   3.679   2.589  1.0425 -0.2181 -2.0748
 2028SOL    HW2 7301   2.381   3.790   2.590 -0.8889  1.6126 -0.5347
 2028SOL     MW 7302   2.298   3.764   2.595 -0.4010  0.0231 -0.3841
 2029SOL     OW 7303   5.650   1.045   4.398 -0.2820  0.0825 -0.8252
 2029SOL    HW1 7304   5.591   1.006   4.462 -0.0640 -1.3238 -1.4621
 2029SOL    HW2 7305   5.703   1.107   4.448 -0.0664 -1.0502  0.3689
 2029SOL     MW 7306   5.649   1.048   4.412 -0.2265 -0.2426 -0.7544
 2030SOL     OW 7307   3.428   0.471   2.890  0.3309 -0.2034  0.3168
 2030SOL    HW1 7308   3.392   0.464   2.801  0.8581 -1.5484  0.2032
 2030SOL    HW2 7309   3.352   0.476   2.947 -0.0195  1.8138 -0.2803
 2030SOL     MW 7310   3.414   0.471   2.886  0.3533 -0.1174  0.2258
 2031SOL     OW 7311   0.899   2.650   0.297  0.1976  0.4776  0.7872
 2031SOL    HW1 7312   0.842   2.723   0.322 -0.4734 -0.7826  3.1007
 2031SOL    HW2 7313   0.986   2.677   0.325 -0.1217  0.2124  2.0559
 2031SOL     MW 7314   0.903   2.663   0.303  0.0708  0.2825  1.2457
 2032SOL     OW 7315   2.492   4.826   0.385  0.0314 -0.7651  0.0556
 2032SOL    HW1 7316   2.425   4.865   0.442 -0.8184 -1.2671 -0.5918
 2032SOL    HW2 7317   2.575   4.861   0.419 -0.4829 -0.8273  1.4118
 2032SOL     MW 7318   2.494   4.836   0.397 -0.1431 -0.8373  0.1463
 2033SOL     OW 7319   0.186   3.853   4.968  0.0345  0.2058 -0.3739
 2033SOL    HW1 7320   0.138   3.826   4.890  0.9583 -0.9221 -0.5615
 2033SOL    HW2 7321   0.270   3.809   4.961  0.2490  0.3572  1.0976
 2033SOL     MW 7322   0.191   3.844   4.957  0.1802  0.0811 -0.2098
 2034SOL     OW 7323   0.144   5.679   0.703  0.0469 -0.5159 -0.0659
 2034SOL    HW1 7324   0.143   5.764   0.747 -0.0432 -0.1398 -0.7755
 2034SOL    HW2 7325   0.055   5.669   0.669  0.6501  0.1547 -1.9286
 2034SOL     MW 7326   0.132   5.689   0.704  0.1126 -0.3819 -0.3952
 2035SOL     OW 7327   3.748   1.031   5.462  0.2806  0.2736 -0.5368
 2035SOL    HW1 7328   3.716   0.979   5.388 -0.2561 -0.1295 -0.0278
 2035SOL    HW2 7329   3.821   1.080   5.426  2.0168 -2.2369 -0.5694
 2035SOL     MW 7330   3.753   1.030   5.448  0.4342 -0.0993 -0.4764
 2036SOL     OW 7331   3.694   2.641   5.528  0.3319  0.0123  0.0129
 2036SOL    HW1 7332   3.722   2.626   5.438 -0.4071  0.0979 -0.2260
 2036SOL    HW2 7333   3.675   2.734   5.533  0.3332  0.0007  0.2500
 2036SOL     MW 7334   3.695   2.651   5.517  0.2375  0.0217  0.0124
 2037SOL     OW 7335   4.529   2.858   5.006  0.0144  0.2774  0.5714
 2037SOL    HW1 7336   4.525   2.875   4.912 -0.3139 -0.7405  0.3938
 2037SOL    HW2 7337   4.623   2.856   5.026  0.0775  4.2189  0.9850
 2037SOL     MW 7338   4.541   2.860   4.997 -0.0191  0.6516  0.6013
 2038SOL     OW 7339   1.781   3.773   3.968 -0.0391 -0.1657 -0.1271
 2038SOL    HW1 7340   1.781   3.754   4.062  0.0627 -2.8683 -0.6169
 2038SOL    HW2 7341   1.845   3.711   3.931 -1.8093 -0.8046 -2.2482
 2038SOL     MW 7342   1.789   3.763   3.975 -0.2527 -0.5937 -0.4613
 2039SOL     OW 7343   3.029   1.778   3.427  0.2479 -0.2070  0.2549
 2039SOL    HW1 7344   3.080   1.783   3.346 -1.2468  1.7201 -0.6045
 2039SOL    HW2 7345   3.054   1.856   3.476 -2.0423  0.9234 -0.3094
 2039SOL     MW 7346   3.039   1.789   3.422 -0.2367  0.1843  0.0725
 2040SOL     OW 7347   4.585   2.490   3.329  0.1654 -0.8431 -0.1633
 2040SOL    HW1 7348   4.627   2.550   3.268 -0.7654 -0.1411 -0.1283
 2040SOL    HW2 7349   4.596   2.530   3.415 -1.5482 -0.0648 -0.2805
 2040SOL     MW 7350   4.592   2.503   3.332 -0.1731 -0.6537 -0.1738
 2041SOL     OW 7351   2.560   3.712   2.301  0.8672  0.2941  0.0404
 2041SOL    HW1 7352   2.634   3.661   2.332 -0.2507 -1.3191  0.1230
 2041SOL    HW2 7353   2.504   3.722   2.378  0.1049 -0.0861 -0.4645
 2041SOL     MW 7354   2.562   3.707   2.315  0.6263  0.0389 -0.0136
 2042SOL     OW 7355   1.978   5.725   5.667 -0.4132 -0.5016 -0.0681
 2042SOL    HW1 7356   1.975   5.821   5.671  0.0827 -0.5496  2.4686
 2042SOL    HW2 7357   2.016   5.699   5.751 -0.5295 -2.9280 -0.7338
 2042SOL     MW 7358   1.982   5.734   5.678 -0.3645 -0.8187  0.1712
 2043SOL     OW 7359   3.357   5.182   1.460  0.4446  0.0647  0.4231
 2043SOL    HW1 7360   3.335   5.179   1.553  1.6917  0.2078  0.7323
 2043SOL    HW2 7361   3.438   5.131   1.453 -1.2094 -2.4705 -1.0532
 2043SOL     MW 7362   3.365   5.175   1.471  0.3922 -0.2422  0.2737
 2044SOL     OW 7363   5.852   4.772   2.277  0.0556 -0.5435 -0.1181
 2044SOL    HW1 7364   5.852   4.867   2.282 -2.9961 -0.5404  0.8488
 2044SOL    HW2 7365   5.905   4.744   2.352 -0.7189  0.3750  0.7867
 2044SOL     MW 7366   5.859   4.780   2.287 -0.4334 -0.4258  0.1214
 2045SOL     OW 7367   2.804   1.827   3.811 -0.4531  0.1845  0.3606
 2045SOL    HW1 7368   2.812   1.734   3.787 -0.3373  0.4073 -0.4977
 2045SOL    HW2 7369   2.781   1.826   3.903 -0.0416 -0.6970  0.4657
 2045SOL     MW 7370   2.802   1.815   3.820 -0.3855  0.1003  0.2639
 2046SOL     OW 7371   0.614   3.951   2.188 -0.4051 -0.1484 -0.1432
 2046SOL    HW1 7372   0.587   3.938   2.279  0.7262  0.7916  0.3329
 2046SOL    HW2 7373   0.699   3.995   2.194 -1.0658  1.4124 -1.6368
 2046SOL     MW 7374   0.621   3.955   2.201 -0.3449  0.1717 -0.2735
 2047SOL     OW 7375   2.170   2.804   4.124 -0.2590 -0.1842  0.6341
 2047SOL    HW1 7376   2.112   2.728   4.132  1.4665 -1.5897  0.2318
 2047SOL    HW2 7377   2.258   2.768   4.134  0.7013  1.4943 -1.3271
 2047SOL     MW 7378   2.174   2.790   4.127  0.0846 -0.1493  0.3314
 2048SOL     OW 7379   4.622   3.590   5.674  0.4198  0.0816 -0.2361
 2048SOL    HW1 7380   4.704   3.577   5.628  1.5846  2.3069  1.1351
 2048SOL    HW2 7381   4.647   3.620   5.761 -1.8355  0.4562  0.3328
 2048SOL     MW 7382   4.636   3.592   5.679  0.2809  0.4144  0.0129
 2049SOL     OW 7383   4.226   4.215   4.619 -0.8013 -0.0111 -0.6756
 2049SOL    HW1 7384   4.181   4.276   4.678 -0.6222 -2.0022  1.5950
 2049SOL    HW2 7385   4.158   4.185   4.559 -1.5072  0.2889 -0.0283
 2049SOL     MW 7386   4.212   4.219   4.619 -0.8688 -0.2270 -0.3018
 2050SOL     OW 7387   1.178   4.407   1.494  0.5629  0.0836  0.3483
 2050SOL    HW1 7388   1.231   4.486   1.490 -0.9818  1.1354 -0.2096
 2050SOL    HW2 7389   1.134   4.403   1.408 -0.2998 -0.7058  0.8072
 2050SOL     MW 7390   1.179   4.416   1.482  0.2548  0.1173  0.3357
 2051SOL     OW 7391   5.254   5.166   3.648 -0.6661 -1.1025  0.4417
 2051SOL    HW1 7392   5.286   5.084   3.612 -2.1978 -1.5543  0.0785
 2051SOL    HW2 7393   5.255   5.227   3.574  1.0009 -0.6192  0.8391
 2051SOL     MW 7394   5.258   5.164   3.634 -0.6490 -1.0991  0.4463
 2052SOL     OW 7395   4.946   0.582   0.922  0.3537  0.1746  0.1600
 2052SOL    HW1 7396   4.883   0.621   0.862  0.7854  1.0249  0.2444
 2052SOL    HW2 7397   4.985   0.657   0.968  2.6859 -0.1993 -1.1366
 2052SOL     MW 7398   4.943   0.597   0.920  0.7076  0.2356  0.0048
 2053SOL     OW 7399   5.405   1.656   0.046 -1.0029  0.2582 -0.9201
 2053SOL    HW1 7400   5.314   1.636   0.067  0.1557 -1.5694  2.8303
 2053SOL    HW2 7401   5.430   1.724   0.109  0.8164 -0.7483 -0.5149
 2053SOL     MW 7402   5.397   1.662   0.057 -0.6218 -0.1047 -0.3882
 2054SOL     OW 7403   0.794   3.496   0.843  0.3711  0.4284 -0.0326
 2054SOL    HW1 7404   0.725   3.495   0.776 -0.2751  1.3424  0.6293
 2054SOL    HW2 7405   0.791   3.408   0.880  0.0885  0.2145 -0.5480
 2054SOL     MW 7406   0.785   3.484   0.839  0.2522  0.5181 -0.0138
 2055SOL     OW 7407   5.324   2.517   4.781  0.0078 -0.3557 -0.4293
 2055SOL    HW1 7408   5.338   2.584   4.848 -0.7554 -1.4616  0.8679
 2055SOL    HW2 7409   5.238   2.539   4.743  1.0932  1.1341 -2.1060
 2055SOL     MW 7410   5.315   2.528   4.785  0.0491 -0.3066 -0.4778
 2056SOL     OW 7411   2.136   0.981   2.544 -0.0689 -0.9065  0.2607
 2056SOL    HW1 7412   2.074   1.045   2.510  1.0829  0.1120  0.0715
 2056SOL    HW2 7413   2.131   0.908   2.482  0.6554  0.1655 -1.0790
 2056SOL     MW 7414   2.128   0.980   2.532  0.1712 -0.6389  0.0651
 2057SOL     OW 7415   1.450   2.548   3.132 -0.0984  1.1369  0.5573
 2057SOL    HW1 7416   1.403   2.631   3.120 -0.9264  0.3859 -1.7053
 2057SOL    HW2 7417   1.507   2.542   3.055  0.1081 -0.2761  0.8175
 2057SOL     MW 7418   1.451   2.558   3.120 -0.1779  0.8597  0.3009
 2058SOL     OW 7419   1.121   3.498   5.027 -0.7285  0.3145 -0.5350
 2058SOL    HW1 7420   1.079   3.584   5.018 -2.7383 -0.8609 -2.6260
 2058SOL    HW2 7421   1.062   3.437   4.983 -0.0891 -2.4284  2.2301
 2058SOL     MW 7422   1.108   3.501   5.020 -0.9040 -0.1874 -0.4487
 2059SOL     OW 7423   0.026   3.887   0.017  0.0239 -0.5097  0.2118
 2059SOL    HW1 7424   0.059   3.972  -0.012 -0.4146 -0.8232 -1.2109
 2059SOL    HW2 7425   0.089   3.860   0.084  1.7596 -0.3504 -1.3081
 2059SOL     MW 7426   0.038   3.895   0.022  0.1899 -0.5293 -0.1650
 2060SOL     OW 7427   4.307   0.687   0.727  0.1039  0.1302  0.0692
 2060SOL    HW1 7428   4.386   0.719   0.684  0.2516  0.7454  0.7974
 2060SOL    HW2 7429   4.289   0.750   0.797 -0.3275 -0.6670  0.6976
 2060SOL     MW 7430   4.315   0.699   0.731  0.0672  0.1069  0.2429
 2061SOL     OW 7431   0.220   2.396   2.403 -0.3469 -0.0074  0.0959
 2061SOL    HW1 7432   0.160   2.417   2.474  0.9529 -1.5019  1.7027
 2061SOL    HW2 7433   0.305   2.428   2.433  0.6930 -2.8968  0.3920
 2061SOL     MW 7434   0.223   2.403   2.416 -0.0474 -0.5689  0.3393
 2062SOL     OW 7435   5.060   1.750   3.366 -0.7697 -0.2571  0.3577
 2062SOL    HW1 7436   5.042   1.703   3.285  3.8238 -0.4115 -0.6647
 2062SOL    HW2 7437   5.029   1.840   3.349 -1.5320 -0.7349 -0.8329
 2062SOL     MW 7438   5.053   1.756   3.354 -0.2799 -0.3380  0.0744
 2063SOL     OW 7439   5.909   5.064   4.720 -0.3872  0.0271  0.9184
 2063SOL    HW1 7440   5.961   4.984   4.716 -0.5417 -0.1210  1.6955
 2063SOL    HW2 7441   5.868   5.071   4.634  0.7372  0.0273  0.3773
 2063SOL     MW 7442   5.910   5.055   4.709 -0.2632  0.0081  0.9484
 2064SOL     OW 7443   3.783   4.446   0.948  0.2294 -0.7029 -0.0039
 2064SOL    HW1 7444   3.734   4.455   1.030 -0.0609  0.3162 -0.2757
 2064SOL    HW2 7445   3.735   4.501   0.886  1.4573 -0.0597 -0.3970
 2064SOL     MW 7446   3.771   4.454   0.951  0.3495 -0.4902 -0.0889
 2065SOL     OW 7447   5.344   3.277   1.534 -0.3704 -0.2508  0.2619
 2065SOL    HW1 7448   5.275   3.274   1.467 -0.7762 -0.5567  0.6969
 2065SOL    HW2 7449   5.398   3.353   1.508  1.0280 -1.9253 -1.9290
 2065SOL     MW 7450   5.342   3.287   1.522 -0.2432 -0.5045  0.0371
 2066SOL     OW 7451   5.445   0.828   0.775  0.2742  0.2119 -0.2830
 2066SOL    HW1 7452   5.409   0.792   0.694 -0.3695  1.5951 -0.6350
 2066SOL    HW2 7453   5.516   0.885   0.746  0.1148  0.6212  0.1262
 2066SOL     MW 7454   5.450   0.831   0.761  0.1712  0.4414 -0.2757
 2067SOL     OW 7455   4.001   3.531   0.257  0.1196  0.1496  0.4286
 2067SOL    HW1 7456   3.911   3.536   0.226 -0.2693  0.9595  1.6428
 2067SOL    HW2 7457   4.044   3.607   0.220  0.9953 -1.5928 -2.2395
 2067SOL     MW 7458   3.995   3.541   0.249  0.1822  0.0300  0.2425
 2068SOL     OW 7459   0.529   4.433   4.180 -0.5835 -0.0127  0.2197
 2068SOL    HW1 7460   0.573   4.485   4.247 -1.4762  0.5281  0.3945
 2068SOL    HW2 7461   0.469   4.377   4.228  0.2728 -1.1259  0.0214
 2068SOL     MW 7462   0.527   4.433   4.194 -0.5882 -0.0863  0.2170
 2069SOL     OW 7463   0.725   1.566   5.498  0.1545  0.0397 -0.1378
 2069SOL    HW1 7464   0.731   1.523   5.584 -2.3687 -0.1519 -0.0294
 2069SOL    HW2 7465   0.697   1.496   5.439 -1.8270  1.0145 -0.3788
 2069SOL     MW 7466   0.722   1.551   5.501 -0.4221  0.1400 -0.1545
 2070SOL     OW 7467   1.628   4.743   1.431 -0.3729  0.3623  0.3708
 2070SOL    HW1 7468   1.698   4.795   1.471  0.0492  1.1227 -1.3062
 2070SOL    HW2 7469   1.558   4.742   1.496  0.9232  0.2062  1.7731
 2070SOL     MW 7470   1.628   4.750   1.444 -0.1528  0.4396  0.3356
 2071SOL     OW 7471   4.994   5.473   5.506  0.1086  0.2175 -0.0976
 2071SOL    HW1 7472   4.977   5.454   5.414  0.4518 -0.7981  0.0355
 2071SOL    HW2 7473   5.073   5.527   5.506 -0.0717  0.4775 -0.4213
 2071SOL     MW 7474   5.002   5.477   5.494  0.1292  0.1206 -0.1221
 2072SOL     OW 7475   0.824   2.065   4.462 -0.4365 -0.5439 -0.0590
 2072SOL    HW1 7476   0.811   1.980   4.420 -1.4007 -0.4462  0.0413
 2072SOL    HW2 7477   0.741   2.083   4.506 -0.8465  1.2620 -1.5272
 2072SOL     MW 7478   0.812   2.056   4.462 -0.6124 -0.3002 -0.2341
 2073SOL     OW 7479   5.469   0.699   2.281  0.5472  0.1721 -0.0695
 2073SOL    HW1 7480   5.444   0.758   2.209  2.2554  1.2004  0.1432
 2073SOL    HW2 7481   5.458   0.753   2.359 -0.2739 -0.6074  0.3551
 2073SOL     MW 7482   5.464   0.714   2.281  0.6604  0.2040  0.0119
 2074SOL     OW 7483   3.589   2.006   3.264  0.0167 -0.0188  0.1353
 2074SOL    HW1 7484   3.494   2.002   3.253 -0.0870  3.0932 -0.3955
 2074SOL    HW2 7485   3.602   2.023   3.357  0.0566 -0.3372  0.1888
 2074SOL     MW 7486   3.578   2.007   3.274  0.0086  0.3388  0.0744
 2075SOL     OW 7487   2.791   1.764   2.042 -0.2558  0.1267 -0.5644
 2075SOL    HW1 7488   2.817   1.681   2.083  0.6492  0.2558 -0.8687
 2075SOL    HW2 7489   2.729   1.738   1.974 -1.0760 -0.1686  0.2707
 2075SOL     MW 7490   2.786   1.750   2.039 -0.2449  0.1055 -0.4961
 2076SOL     OW 7491   1.185   5.905   1.721  0.0570 -0.0651  0.0314
 2076SOL    HW1 7492   1.104   5.950   1.699  0.4944  0.4725 -0.5111
 2076SOL    HW2 7493   1.253   5.954   1.673  0.6733 -0.6016  0.3533
 2076SOL     MW 7494   1.184   5.917   1.712  0.1919 -0.0648  0.0032
 2077SOL     OW 7495   3.413   5.583   4.525  0.3052 -0.1094  0.4935
 2077SOL    HW1 7496   3.402   5.653   4.461 -3.7145 -1.7708 -0.7720
 2077SOL    HW2 7497   3.483   5.529   4.489  1.1303  1.4101 -0.2306
 2077SOL     MW 7498   3.420   5.585   4.512 -0.1040 -0.1273  0.2384
 2078SOL     OW 7499   0.124   3.627   2.651  0.4528 -0.2051 -0.3364
 2078SOL    HW1 7500   0.140   3.591   2.738  0.2333 -0.1236 -0.2618
 2078SOL    HW2 7501   0.086   3.554   2.602 -0.1096 -0.0394 -0.1485
 2078SOL     MW 7502   0.122   3.613   2.656  0.3527 -0.1736 -0.3028
 2079SOL     OW 7503   2.782   2.304   0.476 -0.4177 -0.6652 -0.0406
 2079SOL    HW1 7504   2.840   2.342   0.542 -0.6606 -0.5007  0.0803
 2079SOL    HW2 7505   2.694   2.319   0.510 -0.5305 -0.9811 -0.1858
 2079SOL     MW 7506   2.778   2.311   0.489 -0.4632 -0.6847 -0.0437
 2080SOL     OW 7507   4.622   3.565   3.022  0.5465 -0.0455  0.4902
 2080SOL    HW1 7508   4.715   3.583   3.028  0.7864 -1.0814 -0.0050
 2080SOL    HW2 7509   4.581   3.626   3.084  1.3333  1.9258 -0.8777
 2080SOL     MW 7510   4.629   3.575   3.031  0.6785  0.0739  0.2515
 2081SOL     OW 7511   1.241   3.845   2.707  0.0460  0.1678 -0.2532
 2081SOL    HW1 7512   1.309   3.779   2.722 -1.0736 -1.0980 -0.5778
 2081SOL    HW2 7513   1.172   3.797   2.661 -2.1755  0.7764  2.3680
 2081SOL     MW 7514   1.241   3.830   2.703 -0.3816  0.0837  0.0408
 2082SOL     OW 7515   0.924   1.170   3.271 -0.6553 -0.2922  0.3661
 2082SOL    HW1 7516   0.977   1.230   3.218 -1.2334  0.8375  1.0541
 2082SOL    HW2 7517   0.891   1.105   3.209 -0.5532  0.4704 -0.4872
 2082SOL     MW 7518   0.927   1.169   3.257 -0.7162 -0.0499  0.3448
 2083SOL     OW 7519   5.989   0.776   4.266 -0.0984 -0.0350  0.4889
 2083SOL    HW1 7520   6.002   0.770   4.172 -0.6786 -1.9178  0.5150
 2083SOL    HW2 7521   6.000   0.869   4.286  2.6130  0.0131 -1.0383
 2083SOL     MW 7522   5.992   0.787   4.257  0.1745 -0.2699  0.2961
 2084SOL     OW 7523   4.982   3.888   1.088 -0.6259 -0.3482 -0.0290
 2084SOL    HW1 7524   5.027   3.807   1.113  1.4953  1.0826  0.9531
 2084SOL    HW2 7525   5.029   3.919   1.011 -1.7358 -0.2849 -0.6922
 2084SOL     MW 7526   4.994   3.882   1.082 -0.4964 -0.1566  0.0118
 2085SOL     OW 7527   1.734   0.973   4.321 -0.2721 -0.4947 -0.0184
 2085SOL    HW1 7528   1.743   0.958   4.415 -0.5294  0.6088  0.1826
 2085SOL    HW2 7529   1.824   0.974   4.288 -0.2121 -1.8626  0.0458
 2085SOL     MW 7530   1.746   0.971   4.329 -0.2973 -0.5285  0.0153
 2086SOL     OW 7531   1.766   1.039   4.923 -0.2458  0.2003 -0.3941
 2086SOL    HW1 7532   1.831   1.070   4.860 -0.8678 -0.4488 -1.3670
 2086SOL    HW2 7533   1.818   0.992   4.989  0.4430  1.1789 -0.2255
 2086SOL     MW 7534   1.781   1.037   4.923 -0.2372  0.2426 -0.4969
 2087SOL     OW 7535   1.452   0.785   0.279 -0.6191  0.3910 -0.6120
 2087SOL    HW1 7536   1.435   0.746   0.193 -2.8292  1.8442 -0.8701
 2087SOL    HW2 7537   1.428   0.716   0.341 -0.3283 -0.1876 -1.1324
 2087SOL     MW 7538   1.447   0.771   0.276 -0.8647  0.5029 -0.7116
 2088SOL     OW 7539   0.340   0.690   4.097  0.3115 -0.3972  0.1466
 2088SOL    HW1 7540   0.427   0.665   4.064  0.5831  0.0255  0.5332
 2088SOL    HW2 7541   0.313   0.762   4.040  0.5282 -0.0522  0.4788
 2088SOL     MW 7542   0.348   0.696   4.086  0.3740 -0.2989  0.2384
 2089SOL     OW 7543   0.779   5.838   2.734  0.1439  0.0605 -0.1596
 2089SOL    HW1 7544   0.821   5.786   2.802  0.3728 -0.4451 -0.6844
 2089SOL    HW2 7545   0.806   5.797   2.652  0.8058  1.3604 -0.6141
 2089SOL     MW 7546   0.788   5.826   2.732  0.2580  0.1626 -0.2849
 2090SOL     OW 7547   5.936   1.529   3.600  0.2706 -0.7436 -0.6883
 2090SOL    HW1 7548   5.858   1.480   3.578  0.3877 -0.2704 -2.2179
 2090SOL    HW2 7549   5.991   1.467   3.649 -1.8498 -0.4987  2.0919
 2090SOL     MW 7550   5.933   1.515   3.604  0.0143 -0.6517 -0.5281
 2091SOL     OW 7551   1.231   2.612   1.714  0.0977  0.6263  0.2672
 2091SOL    HW1 7552   1.242   2.698   1.755 -0.6887  0.8484  0.0164
 2091SOL    HW2 7553   1.151   2.577   1.753 -0.9158  1.0384 -1.4025
 2091SOL     MW 7554   1.222   2.618   1.724 -0.1327  0.7079  0.0212
 2092SOL     OW 7555   4.426   3.057   2.397 -0.0262  0.0814  0.7493
 2092SOL    HW1 7556   4.486   3.109   2.451  1.1593 -1.5122  1.0025
 2092SOL    HW2 7557   4.358   3.028   2.456 -0.4997  1.0322  0.6830
 2092SOL     MW 7558   4.425   3.060   2.411  0.0648 -0.0012  0.7734
 2093SOL     OW 7559   0.957   1.030   3.013  0.1168 -0.2539 -0.3678
 2093SOL    HW1 7560   0.976   0.946   3.056 -0.1630 -1.0457 -1.7848
 2093SOL    HW2 7561   0.871   1.018   2.974 -0.2528  0.9562  0.0494
 2093SOL     MW 7562   0.949   1.018   3.014  0.0337 -0.2004 -0.4959
 2094SOL     OW 7563   4.622   0.107   2.252 -0.9892  0.0509  0.1914
 2094SOL    HW1 7564   4.612   0.012   2.247  2.2678 -0.4526  2.0868
 2094SOL    HW2 7565   4.568   0.132   2.328 -2.2085 -0.1864 -0.5796
 2094SOL     MW 7566   4.614   0.098   2.261 -0.7286 -0.0439  0.3352
 2095SOL     OW 7567   3.859   0.261   3.221 -0.3675 -0.3150  0.1019
 2095SOL    HW1 7568   3.767   0.268   3.197 -0.0598 -1.2146 -1.4092
 2095SOL    HW2 7569   3.864   0.183   3.276 -0.3020 -1.0643 -0.9498
 2095SOL     MW 7570   3.848   0.252   3.225 -0.3197 -0.5261 -0.2260
 2096SOL     OW 7571   2.207   4.813   4.020 -0.6865 -0.4305  0.2509
 2096SOL    HW1 7572   2.230   4.743   4.082 -1.9563 -2.2791 -1.3063
 2096SOL    HW2 7573   2.183   4.887   4.075  1.5302 -0.9126  1.9362
 2096SOL     MW 7574   2.207   4.813   4.035 -0.5651 -0.7291  0.2675
 2097SOL     OW 7575   0.113   0.038   5.088 -0.3048 -0.8109  0.3170
 2097SOL    HW1 7576   0.035   0.022   5.035  0.1459  1.2394 -1.0297
 2097SOL    HW2 7577   0.186   0.020   5.030  0.2052  0.1642  0.6406
 2097SOL     MW 7578   0.112   0.034   5.074 -0.1818 -0.4236  0.1864
 2098SOL     OW 7579   3.941   2.364   5.719 -0.5610  0.6404 -0.3621
 2098SOL    HW1 7580   3.883   2.289   5.734  0.6231 -0.1879  0.1063
 2098SOL    HW2 7581   3.988   2.342   5.638 -0.3183  0.9359 -0.3011
 2098SOL     MW 7582   3.939   2.351   5.710 -0.3786  0.5722 -0.2937
 2099SOL     OW 7583   3.152   2.908   3.548 -0.5872 -0.1217  0.5156
 2099SOL    HW1 7584   3.152   2.964   3.626 -0.4542 -0.3852  0.7068
 2099SOL    HW2 7585   3.142   2.968   3.475 -0.1782  0.1795  0.7055
 2099SOL     MW 7586   3.151   2.923   3.549 -0.5181 -0.1168  0.5643
 2100SOL     OW 7587   0.271   3.197   2.283 -0.2252 -0.2789 -0.3150
 2100SOL    HW1 7588   0.180   3.226   2.286 -0.4783 -1.0982  0.1810
 2100SOL    HW2 7589   0.302   3.208   2.373 -0.4099 -1.7718 -0.0460
 2100SOL     MW 7590   0.263   3.202   2.295 -0.2812 -0.5746 -0.2172
 2101SOL     OW 7591   5.904   4.583   3.225  1.0145  0.0282 -0.0775
 2101SOL    HW1 7592   5.820   4.547   3.198  0.6249  0.6740  0.2817
 2101SOL    HW2 7593   5.968   4.536   3.172  0.5555 -1.5943  0.7759
 2101SOL     MW 7594   5.902   4.572   3.215  0.9060 -0.0968  0.0780
 2102SOL     OW 7595   2.138   0.998   0.138  1.0620 -0.4151  0.5174
 2102SOL    HW1 7596   2.092   1.028   0.216  2.1072 -0.4682  1.1649
 2102SOL    HW2 7597   2.214   0.951   0.172  1.5168 -0.4556 -0.5369
 2102SOL     MW 7598   2.142   0.996   0.152  1.2543 -0.4271  0.4653
 2103SOL     OW 7599   4.817   4.448   5.369 -0.2792 -0.0917  0.0410
 2103SOL    HW1 7600   4.812   4.379   5.303  0.9347  2.2091 -2.5733
 2103SOL    HW2 7601   4.728   4.455   5.403 -0.6605 -2.1582 -0.4572
 2103SOL     MW 7602   4.805   4.440   5.365 -0.1736 -0.0620 -0.3576
 2104SOL     OW 7603   5.938   0.010   4.685  0.0029 -0.3337 -0.1797
 2104SOL    HW1 7604   5.926   0.022   4.780  0.8030  3.7082 -0.5012
 2104SOL    HW2 7605   5.852   0.031   4.648  0.4298  0.7907 -0.5328
 2104SOL     MW 7606   5.925   0.014   4.693  0.1597  0.3277 -0.2666
 2105SOL     OW 7607   2.522   1.533   0.960  0.2146 -0.4496  0.1258
 2105SOL    HW1 7608   2.452   1.538   0.894  0.0436 -0.2872  0.3219
 2105SOL    HW2 7609   2.571   1.614   0.949  2.1356 -1.8198 -1.9907
 2105SOL     MW 7610   2.519   1.544   0.950  0.4387 -0.6043 -0.1200
 2106SOL     OW 7611   2.500   5.652   0.503  0.3232 -0.7075  0.1550
 2106SOL    HW1 7612   2.594   5.635   0.503  0.3582 -0.5839  1.1682
 2106SOL    HW2 7613   2.464   5.585   0.561 -0.0967 -0.1834  0.5021
 2106SOL     MW 7614   2.508   5.642   0.511  0.2739 -0.6247  0.3291
 2107SOL     OW 7615   3.792   1.665   1.868 -0.8057  0.0831  0.2934
 2107SOL    HW1 7616   3.805   1.615   1.948  1.0944 -1.0564 -0.6957
 2107SOL    HW2 7617   3.722   1.727   1.889 -0.8104 -0.6781  2.5953
 2107SOL     MW 7618   3.785   1.667   1.881 -0.5631 -0.1601  0.4615
 2108SOL     OW 7619   1.476   0.021   3.437  0.3129  0.5167 -0.1051
 2108SOL    HW1 7620   1.463  -0.026   3.354  0.8320  1.6477 -0.8390
 2108SOL    HW2 7621   1.414  -0.020   3.498  1.2703 -1.6073 -0.5259
 2108SOL     MW 7622   1.466   0.010   3.434  0.5020  0.3895 -0.2530
 2109SOL     OW 7623   2.208   3.587   0.131 -0.3810 -0.5616 -0.4753
 2109SOL    HW1 7624   2.166   3.501   0.133  2.1998 -1.8751 -0.6882
 2109SOL    HW2 7625   2.292   3.571   0.087  0.8566  1.7409  0.9797
 2109SOL     MW 7626   2.213   3.574   0.125  0.1078 -0.4349 -0.3163
 2110SOL     OW 7627   4.323   3.716   4.799  0.0327  0.2283 -0.1885
 2110SOL    HW1 7628   4.393   3.751   4.742 -0.1539  0.3994 -0.3154
 2110SOL    HW2 7629   4.367   3.652   4.854 -0.2826 -1.9886 -2.4193
 2110SOL     MW 7630   4.338   3.712   4.798 -0.0315 -0.0336 -0.4902
 2111SOL     OW 7631   0.894   3.150   1.294  0.3277  0.5499 -0.6802
 2111SOL    HW1 7632   0.870   3.206   1.219 -2.4878  1.1991  0.6490
 2111SOL    HW2 7633   0.836   3.178   1.364  0.4622 -2.5176  0.7222
 2111SOL     MW 7634   0.884   3.161   1.293 -0.0156  0.2406 -0.3304
 2112SOL     OW 7635   1.990   4.297   2.651 -0.6120 -0.1477  0.3286
 2112SOL    HW1 7636   1.935   4.350   2.709  1.0471  3.2016 -1.0314
 2112SOL    HW2 7637   2.075   4.343   2.650  0.3793 -1.9390 -2.2014
 2112SOL     MW 7638   1.994   4.310   2.658 -0.2728  0.0520 -0.1693
 2113SOL     OW 7639   1.140   2.493   2.641 -0.1717  0.5568  0.6324
 2113SOL    HW1 7640   1.064   2.435   2.650 -1.0466  1.5251 -0.4222
 2113SOL    HW2 7641   1.112   2.560   2.579  2.0559  0.1048 -0.9189
 2113SOL     MW 7642   1.127   2.494   2.634  0.0015  0.6227  0.2990
 2114SOL     OW 7643   5.244   3.020   2.487 -0.4204 -0.1715  0.0624
 2114SOL    HW1 7644   5.156   3.058   2.491 -0.6649 -0.6992 -0.2559
 2114SOL    HW2 7645   5.265   3.016   2.394  2.0403  4.6871  0.2400
 2114SOL     MW 7646   5.236   3.024   2.476 -0.1369  0.3829  0.0443
 2115SOL     OW 7647   0.007   0.034   3.447  0.1626 -0.0834 -0.0953
 2115SOL    HW1 7648   0.004   0.120   3.488 -1.5416 -1.2270  2.2708
 2115SOL    HW2 7649  -0.070   0.032   3.389  0.7014  0.2820 -0.8412
 2115SOL     MW 7650  -0.003   0.045   3.445  0.0138 -0.1830  0.1123
 2116SOL     OW 7651   3.456   5.605   3.362  0.0598 -0.1364 -0.3841
 2116SOL    HW1 7652   3.535   5.586   3.413 -0.1660  0.9170  0.3696
 2116SOL    HW2 7653   3.427   5.519   3.331 -0.6992 -1.0231  2.6301
 2116SOL     MW 7654   3.462   5.591   3.365 -0.0663 -0.1149  0.0982
 2117SOL     OW 7655   3.928   5.421   4.183  0.1622 -0.1520 -0.5341
 2117SOL    HW1 7656   3.984   5.477   4.127  0.4260  0.5143  0.3837
 2117SOL    HW2 7657   3.851   5.474   4.200 -0.6707 -0.9888 -1.6106
 2117SOL     MW 7658   3.926   5.435   4.178  0.0892 -0.1736 -0.5546
 2118SOL     OW 7659   3.015   1.834   1.640  0.6259  0.1849  0.3578
 2118SOL    HW1 7660   3.016   1.856   1.733 -0.3328 -0.0895  0.4401
 2118SOL    HW2 7661   2.924   1.847   1.613  1.4335  3.0460 -1.2292
 2118SOL     MW 7662   3.003   1.839   1.648  0.6063  0.5158  0.1652
 2119SOL     OW 7663   3.653   4.820   4.168  0.0790 -0.1515  0.1657
 2119SOL    HW1 7664   3.712   4.860   4.104 -0.1569 -1.2102 -0.7315
 2119SOL    HW2 7665   3.591   4.770   4.115 -1.5955  0.9039  1.1113
 2119SOL     MW 7666   3.653   4.818   4.153 -0.1655 -0.1516  0.1721
 2120SOL     OW 7667   2.955   5.233   0.569 -0.7248 -0.2750 -0.3759
 2120SOL    HW1 7668   2.981   5.155   0.619  1.4873  1.2966  1.0402
 2120SOL    HW2 7669   2.867   5.252   0.599 -0.8204 -1.5152  0.1902
 2120SOL     MW 7670   2.947   5.225   0.580 -0.4539 -0.2322 -0.1222
 2121SOL     OW 7671   4.342   2.418   3.988  0.1675  0.0356 -0.5780
 2121SOL    HW1 7672   4.435   2.439   3.986  0.1848 -0.0373 -0.5378
 2121SOL    HW2 7673   4.312   2.450   4.073  0.2379 -0.2949 -0.4277
 2121SOL     MW 7674   4.350   2.425   3.998  0.1783 -0.0160 -0.5534
 2122SOL     OW 7675   3.451   0.423   3.903  0.4438  0.1891  0.5082
 2122SOL    HW1 7676   3.534   0.435   3.949  1.0767 -2.3114  0.1187
 2122SOL    HW2 7677   3.462   0.470   3.820  1.1796  0.5048  0.7797
 2122SOL     MW 7678   3.463   0.430   3.898  0.6192 -0.0905  0.4933
 2123SOL     OW 7679   2.047   4.829   1.350 -0.1650 -0.2336 -0.3280
 2123SOL    HW1 7680   2.108   4.857   1.281 -0.9112 -1.3691 -1.4621
 2123SOL    HW2 7681   2.018   4.910   1.391  2.3811  0.3167  0.4686
 2123SOL     MW 7682   2.051   4.843   1.346  0.0656 -0.3090 -0.3712
 2124SOL     OW 7683   1.862   0.261   4.936  0.3800 -0.1340 -0.2831
 2124SOL    HW1 7684   1.862   0.274   4.841 -1.2033 -0.0779 -0.2869
 2124SOL    HW2 7685   1.772   0.277   4.962  1.3524  2.6600  1.6346
 2124SOL     MW 7686   1.851   0.265   4.927  0.3018  0.2308 -0.0381
 2125SOL     OW 7687   3.488   5.033   2.934  0.1198 -0.5483 -0.1287
 2125SOL    HW1 7688   3.550   4.991   2.874 -0.4349  0.6757 -1.5794
 2125SOL    HW2 7689   3.533   5.112   2.963 -1.8393  1.9899 -3.5710
 2125SOL     MW 7690   3.502   5.037   2.930 -0.2019 -0.0663 -0.7553
 2126SOL     OW 7691   5.545   0.815   5.253  0.2846 -0.0331  1.2868
 2126SOL    HW1 7692   5.619   0.824   5.313  0.0774 -1.1323  1.7047
 2126SOL    HW2 7693   5.568   0.740   5.198 -1.1404 -1.2074  2.2924
 2126SOL     MW 7694   5.558   0.807   5.254  0.0753 -0.3241  1.4691
 2127SOL     OW 7695   2.543   3.774   3.188 -0.2679 -0.1030  0.2853
 2127SOL    HW1 7696   2.634   3.744   3.180 -0.1822  0.0545  0.6728
 2127SOL    HW2 7697   2.495   3.723   3.123  0.3263  0.7269 -0.8146
 2127SOL     MW 7698   2.549   3.763   3.179 -0.1807  0.0234  0.1941
 2128SOL     OW 7699   4.145   2.063   3.031  0.3203 -0.2212  0.1620
 2128SOL    HW1 7700   4.118   1.979   2.994 -0.4781 -0.0966  0.4455
 2128SOL    HW2 7701   4.210   2.097   2.970  0.0012 -0.6393 -0.4149
 2128SOL     MW 7702   4.150   2.057   3.019  0.1779 -0.2587  0.1242
 2129SOL     OW 7703   1.864   4.714   4.414 -0.3770 -0.2079  0.1886
 2129SOL    HW1 7704   1.867   4.632   4.365  1.7278  0.4143 -0.8032
 2129SOL    HW2 7705   1.951   4.720   4.455 -0.1045  2.0665 -0.6888
 2129SOL     MW 7706   1.876   4.704   4.413 -0.0727  0.1631 -0.0510
 2130SOL     OW 7707   4.008   4.727   5.153 -1.3447 -0.0593 -0.2380
 2130SOL    HW1 7708   3.931   4.725   5.209 -1.8684  0.6163 -0.9234
 2130SOL    HW2 7709   4.042   4.816   5.163 -2.1015  0.4280 -1.8637
 2130SOL     MW 7710   4.003   4.738   5.161 -1.5082  0.0896 -0.5341
 2131SOL     OW 7711   5.291   2.134   4.300  0.1776 -0.0577  0.3473
 2131SOL    HW1 7712   5.309   2.152   4.392  0.1353  0.5047  0.2456
 2131SOL    HW2 7713   5.319   2.213   4.254 -2.3767  0.7648  0.1476
 2131SOL     MW 7714   5.297   2.147   4.306 -0.1540  0.1197  0.3090
 2132SOL     OW 7715   2.915   3.190   2.063 -0.1550  0.0821  0.3029
 2132SOL    HW1 7716   2.913   3.284   2.077 -1.2391  0.0332  0.4888
 2132SOL    HW2 7717   2.901   3.152   2.150 -2.9109 -0.2313 -0.2461
 2132SOL     MW 7718   2.913   3.197   2.076 -0.6466  0.0355  0.2565
 2133SOL     OW 7719   1.278   5.938   5.126  0.2422 -0.6812 -0.4621
 2133SOL    HW1 7720   1.362   5.946   5.080  1.2324 -0.5907  1.2849
 2133SOL    HW2 7721   1.239   5.859   5.091 -0.4699  0.9814 -3.6524
 2133SOL     MW 7722   1.284   5.929   5.116  0.2779 -0.4568 -0.6466
 2134SOL     OW 7723   0.589   2.588   4.948 -0.2052  0.4709  0.0343
 2134SOL    HW1 7724   0.657   2.551   5.004  0.4185  1.5174 -0.0037
 2134SOL    HW2 7725   0.585   2.530   4.872  0.6319  0.3944  0.0504
 2134SOL     MW 7726   0.597   2.576   4.945 -0.0182  0.5951  0.0310
 2135SOL     OW 7727   1.282   1.840   4.903  0.4345  0.0146 -1.0818
 2135SOL    HW1 7728   1.268   1.782   4.829 -0.4570  2.1969 -2.6840
 2135SOL    HW2 7729   1.207   1.900   4.902  1.3530  1.2546  0.4621
 2135SOL     MW 7730   1.270   1.840   4.894  0.4379  0.4525 -1.0896
 2136SOL     OW 7731   2.589   3.178   0.278  0.0843 -0.0623 -0.6621
 2136SOL    HW1 7732   2.545   3.263   0.275 -0.5450 -0.2850  1.2188
 2136SOL    HW2 7733   2.681   3.199   0.292 -0.3792  0.3079  2.1281
 2136SOL     MW 7734   2.595   3.192   0.280 -0.0556 -0.0434 -0.0642
 2137SOL     OW 7735   0.863   5.471   5.546 -0.3963 -0.3466 -0.0581
 2137SOL    HW1 7736   0.928   5.400   5.553  1.4892  1.0948 -2.0254
 2137SOL    HW2 7737   0.851   5.502   5.635  1.5061 -0.7909  0.3723
 2137SOL     MW 7738   0.870   5.465   5.558  0.0886 -0.2189 -0.2546
 2138SOL     OW 7739   2.172   0.551   3.089  0.1889  0.9816 -0.0681
 2138SOL    HW1 7740   2.129   0.634   3.112 -2.5109 -0.0838 -1.0226
 2138SOL    HW2 7741   2.104   0.502   3.043  2.2141 -1.1859 -0.7883
 2138SOL     MW 7742   2.158   0.555   3.086  0.1023  0.5677 -0.2823
 2139SOL     OW 7743   4.408   1.827   5.089 -0.2111 -0.3856 -0.0224
 2139SOL    HW1 7744   4.427   1.907   5.040 -2.1422  0.8153  1.1404
 2139SOL    HW2 7745   4.476   1.824   5.156  0.2185 -0.0318 -0.4328
 2139SOL     MW 7746   4.419   1.837   5.091 -0.4034 -0.1864  0.0739
 2140SOL     OW 7747   3.277   5.410   2.598 -0.0513  0.6769 -0.7728
 2140SOL    HW1 7748   3.194   5.427   2.553 -0.0350 -0.6599 -1.3412
 2140SOL    HW2 7749   3.252   5.373   2.682 -0.0518  1.5406 -0.3909
 2140SOL     MW 7750   3.263   5.408   2.603 -0.0496  0.6161 -0.7968
 2141SOL     OW 7751   4.936   3.017   5.231 -0.5688 -0.0100 -0.1436
 2141SOL    HW1 7752   5.020   2.989   5.267 -0.4681  0.3736 -0.0723
 2141SOL    HW2 7753   4.959   3.082   5.164 -0.6868 -1.5993 -1.7714
 2141SOL     MW 7754   4.949   3.022   5.227 -0.5713 -0.1643 -0.3428
 2142SOL     OW 7755   2.597   1.022   3.832  0.3807  0.0802  0.0643
 2142SOL    HW1 7756   2.643   1.037   3.915  0.1958  0.5105  0.0883
 2142SOL    HW2 7757   2.530   0.957   3.853  1.4980 -1.1598 -0.1479
 2142SOL     MW 7758   2.594   1.015   3.845  0.5002 -0.0236  0.0398
 2143SOL     OW 7759   1.213   2.888   5.302 -0.2354  0.0819 -0.0132
 2143SOL    HW1 7760   1.132   2.920   5.341  0.0978 -1.4111  1.9679
 2143SOL    HW2 7761   1.272   2.964   5.302 -1.5223  1.1055 -1.2476
 2143SOL     MW 7762   1.211   2.901   5.307 -0.3575  0.0217  0.0825
 2144SOL     OW 7763   4.202   0.144   0.137 -0.3114  0.4798 -0.6323
 2144SOL    HW1 7764   4.218   0.232   0.103 -2.6556  0.6936 -1.2411
 2144SOL    HW2 7765   4.119   0.117   0.097  0.3955 -2.0270 -0.4922
 2144SOL     MW 7766   4.193   0.152   0.127 -0.5207  0.1863 -0.6923
 2145SOL     OW 7767   5.811   4.099   2.331  0.1649 -0.4316 -0.0570
 2145SOL    HW1 7768   5.850   4.183   2.354  0.3344 -0.3188 -0.7500
 2145SOL    HW2 7769   5.716   4.115   2.336  0.1971 -0.2136 -0.1328
 2145SOL     MW 7770   5.804   4.112   2.334  0.1912 -0.3891 -0.1554
 2146SOL     OW 7771   3.183   4.737   4.666 -0.0551  0.7792 -0.5480
 2146SOL    HW1 7772   3.221   4.793   4.599 -3.3861  2.2348 -1.3313
 2146SOL    HW2 7773   3.170   4.795   4.742  0.1829  0.0894  0.0265
 2146SOL     MW 7774   3.186   4.752   4.667 -0.4511  0.8769 -0.5746
 2147SOL     OW 7775   4.924   4.927   4.931  0.4485  0.0665  0.0699
 2147SOL    HW1 7776   5.015   4.946   4.955  0.3543  2.2648 -1.1635
 2147SOL    HW2 7777   4.930   4.885   4.845  0.3998 -1.8921  0.9902
 2147SOL     MW 7778   4.937   4.924   4.923  0.4296  0.0973  0.0296
 2148SOL     OW 7779   3.393   2.789   0.782  0.1867  0.0878 -0.1295
 2148SOL    HW1 7780   3.455   2.855   0.813 -0.1149 -0.1590  1.0049
 2148SOL    HW2 7781   3.307   2.824   0.804  0.0443 -0.9065  0.9049
 2148SOL     MW 7782   3.390   2.802   0.788  0.1299 -0.0710  0.1482
 2149SOL     OW 7783   5.111   3.827   1.945  0.2930 -0.3742  0.3763
 2149SOL    HW1 7784   5.056   3.884   1.892 -2.6004 -2.5905  0.8956
 2149SOL    HW2 7785   5.106   3.864   2.033 -2.1363 -1.7616  0.8515
 2149SOL     MW 7786   5.103   3.839   1.950 -0.3881 -0.8357  0.5035
 2150SOL     OW 7787   1.972   0.365   4.028 -0.4879 -0.4710  0.4293
 2150SOL    HW1 7788   1.966   0.322   4.113  1.9819  1.1104  1.4809
 2150SOL    HW2 7789   2.037   0.314   3.980  0.3169  0.3553  0.6210
 2150SOL     MW 7790   1.980   0.353   4.033 -0.0688 -0.1628  0.5884
 2151SOL     OW 7791   0.534   3.613   0.289 -0.0180 -0.7127 -0.9548
 2151SOL    HW1 7792   0.582   3.557   0.351  0.6828  1.5964  0.6496
 2151SOL    HW2 7793   0.602   3.647   0.230 -0.1151  0.1657 -0.5633
 2151SOL     MW 7794   0.549   3.610   0.289  0.0592 -0.3047 -0.6993
 2152SOL     OW 7795   0.673   2.258   2.917  0.2953  0.5187  0.1620
 2152SOL    HW1 7796   0.681   2.353   2.929 -3.4505  1.0767 -0.8438
 2152SOL    HW2 7797   0.600   2.234   2.974  0.4595 -1.5638 -0.4878
 2152SOL     MW 7798   0.664   2.267   2.926 -0.1631  0.3235 -0.0498
 2153SOL     OW 7799   0.726   0.056   2.935  0.5658 -0.2508  0.3603
 2153SOL    HW1 7800   0.812   0.027   2.966 -0.5398 -2.5515  1.4263
 2153SOL    HW2 7801   0.727   0.151   2.946  2.6655 -0.3391  1.1635
 2153SOL     MW 7802   0.737   0.065   2.940  0.6930 -0.5566  0.5996
 2154SOL     OW 7803   3.757   4.004   1.366 -0.0077  0.5417  0.4101
 2154SOL    HW1 7804   3.743   3.911   1.346  0.8701  0.7339 -1.2125
 2154SOL    HW2 7805   3.829   4.004   1.429 -0.1917  0.0996  0.6233
 2154SOL     MW 7806   3.764   3.992   1.371  0.0811  0.5097  0.2297
 2155SOL     OW 7807   1.237   0.615   3.215  0.4384  0.2047  0.3274
 2155SOL    HW1 7808   1.238   0.531   3.169  1.0663 -0.1301  0.9626
 2155SOL    HW2 7809   1.260   0.679   3.148  2.7364 -0.4343  0.4800
 2155SOL     MW 7810   1.240   0.612   3.201  0.8130  0.0800  0.4284
 2156SOL     OW 7811   0.765   2.418   4.413 -0.1412 -0.0732  0.5432
 2156SOL    HW1 7812   0.671   2.404   4.422 -0.2780  0.8225  0.6066
 2156SOL    HW2 7813   0.800   2.404   4.501 -0.4822  1.4640  0.9354
 2156SOL     MW 7814   0.758   2.415   4.426 -0.2024  0.2382  0.6013
 2157SOL     OW 7815   4.124   5.811   3.733 -0.2460 -0.3955  0.5438
 2157SOL    HW1 7816   4.088   5.732   3.772 -1.7645 -0.0226 -0.0724
 2157SOL    HW2 7817   4.109   5.800   3.639 -0.7952  0.7790  0.4850
 2157SOL     MW 7818   4.118   5.800   3.726 -0.5107 -0.1969  0.4575
 2158SOL     OW 7819   4.157   4.711   4.745 -0.3470 -0.0295 -0.4860
 2158SOL    HW1 7820   4.247   4.730   4.773  0.2895 -0.2496 -2.2838
 2158SOL    HW2 7821   4.120   4.797   4.727 -1.2740  0.2354  2.4105
 2158SOL     MW 7822   4.164   4.724   4.746 -0.3839 -0.0238 -0.3452
 2159SOL     OW 7823   5.108   5.861   3.237 -0.1145 -0.4609 -0.1992
 2159SOL    HW1 7824   5.023   5.852   3.279 -0.8064 -0.7381 -1.6273
 2159SOL    HW2 7825   5.161   5.790   3.273 -0.3532 -0.0436  0.9898
 2159SOL     MW 7826   5.104   5.851   3.247 -0.2337 -0.4430 -0.2301
 2160SOL     OW 7827   4.305   2.372   2.710  0.1689 -0.3240  0.0832
 2160SOL    HW1 7828   4.220   2.367   2.754  0.2632 -0.4017  0.2584
 2160SOL    HW2 7829   4.287   2.417   2.628  0.0486  0.1262  0.3517
 2160SOL     MW 7830   4.292   2.377   2.705  0.1655 -0.2766  0.1400
 2161SOL     OW 7831   0.932   5.810   3.306  0.3285 -0.6598  0.5159
 2161SOL    HW1 7832   0.902   5.899   3.288 -1.5814 -1.3266  0.2938
 2161SOL    HW2 7833   0.979   5.784   3.227  1.1445  0.2601  0.6957
 2161SOL     MW 7834   0.934   5.818   3.294  0.1885 -0.6275  0.5102
 2162SOL     OW 7835   5.549   5.160   0.091  0.0294 -0.1085 -0.0925
 2162SOL    HW1 7836   5.561   5.163  -0.004 -2.1508 -0.4935 -0.4121
 2162SOL    HW2 7837   5.470   5.212   0.107  0.0744 -0.4953  1.4476
 2162SOL     MW 7838   5.540   5.167   0.081 -0.2437 -0.2079  0.0637
 2163SOL     OW 7839   1.506   0.458   1.395 -0.4830 -0.3709  0.4035
 2163SOL    HW1 7840   1.595   0.443   1.426 -0.3727  2.7016  1.7342
 2163SOL    HW2 7841   1.508   0.544   1.355 -2.3743 -1.1901 -1.5797
 2163SOL     MW 7842   1.517   0.467   1.394 -0.7111 -0.0824  0.3201
 2164SOL     OW 7843   1.009   1.073   2.412  0.2694 -0.1415 -0.1021
 2164SOL    HW1 7844   0.991   0.997   2.357  1.7674 -0.3388 -0.3363
 2164SOL    HW2 7845   0.982   1.148   2.360  0.2521 -0.4203 -0.4958
 2164SOL     MW 7846   1.004   1.073   2.399  0.4590 -0.2025 -0.1824
 2165SOL     OW 7847   2.380   2.667   3.292 -0.0950 -0.1337 -0.3084
 2165SOL    HW1 7848   2.447   2.717   3.338 -0.0873 -0.5045  0.0969
 2165SOL    HW2 7849   2.428   2.595   3.251  0.2533  1.5154 -2.9305
 2165SOL     MW 7850   2.394   2.664   3.293 -0.0494  0.0298 -0.5922
 2166SOL     OW 7851   3.990   3.527   4.808  0.6370 -0.2271  0.2843
 2166SOL    HW1 7852   4.014   3.468   4.880 -0.1188 -2.5520 -1.3076
 2166SOL    HW2 7853   4.069   3.531   4.753  0.7149  0.3448  0.4305
 2166SOL     MW 7854   4.003   3.520   4.810  0.5498 -0.4516  0.0992
 2167SOL     OW 7855   0.770   0.801   2.531  0.5092 -0.7589  0.4524
 2167SOL    HW1 7856   0.793   0.751   2.610  1.3031 -0.8501  0.1690
 2167SOL    HW2 7857   0.683   0.837   2.550 -0.8380 -3.6785 -0.0389
 2167SOL     MW 7858   0.762   0.799   2.544  0.4384 -1.1443  0.3533
 2168SOL     OW 7859   5.924   5.542   3.663  0.0739 -0.1997  0.0077
 2168SOL    HW1 7860   5.864   5.468   3.672  0.3093 -0.3064  0.7832
 2168SOL    HW2 7861   6.008   5.503   3.640 -0.3488  0.0192 -1.9511
 2168SOL     MW 7862   5.927   5.528   3.661  0.0496 -0.1850 -0.1435
 2169SOL     OW 7863   2.499   4.166   5.455 -0.0801 -0.0671  0.5822
 2169SOL    HW1 7864   2.517   4.072   5.444 -0.1898 -0.0866  0.5662
 2169SOL    HW2 7865   2.559   4.209   5.394 -1.7209 -0.2447 -1.1823
 2169SOL     MW 7866   2.509   4.159   5.446 -0.3040 -0.0925  0.3543
 2170SOL     OW 7867   2.892   2.828   0.394  0.5120 -0.2794 -0.0439
 2170SOL    HW1 7868   2.968   2.774   0.414  0.3538 -0.6079 -0.3096
 2170SOL    HW2 7869   2.924   2.892   0.330  0.2197 -1.3613 -1.3046
 2170SOL     MW 7870   2.905   2.829   0.388  0.4542 -0.4599 -0.2393
 2171SOL     OW 7871   5.058   3.398   0.201  0.0786 -0.1394  0.1887
 2171SOL    HW1 7872   5.132   3.448   0.235 -0.5009  1.3653 -0.7145
 2171SOL    HW2 7873   5.002   3.463   0.158 -1.5411 -1.3108  0.4448
 2171SOL     MW 7874   5.060   3.413   0.200 -0.2036 -0.0968  0.1058
 2172SOL     OW 7875   0.259   5.163   4.844  0.4741 -0.1127  0.1443
 2172SOL    HW1 7876   0.328   5.113   4.888  0.2851 -0.8201 -0.3473
 2172SOL    HW2 7877   0.178   5.121   4.873  0.3773 -0.9880 -1.3556
 2172SOL     MW 7878   0.258   5.151   4.853  0.4375 -0.3157 -0.1106
 2173SOL     OW 7879   3.691   0.334   0.454 -0.5470  0.0087  0.1764
 2173SOL    HW1 7880   3.772   0.324   0.403 -0.9216  1.0780 -0.6467
 2173SOL    HW2 7881   3.694   0.424   0.486 -0.9532 -0.2496  0.9510
 2173SOL     MW 7882   3.702   0.344   0.452 -0.6468  0.1125  0.1702
 2174SOL     OW 7883   5.594   4.228   1.317 -1.1264  0.2751 -0.1313
 2174SOL    HW1 7884   5.660   4.296   1.332  0.3490 -1.1135 -0.2694
 2174SOL    HW2 7885   5.624   4.153   1.367 -1.5906 -1.0155 -1.7364
 2174SOL     MW 7886   5.606   4.227   1.325 -0.9971 -0.0677 -0.3544
 2175SOL     OW 7887   5.962   0.570   3.723  0.6758  0.2383  0.2151
 2175SOL    HW1 7888   5.993   0.480   3.736  0.1793  0.0641  0.2237
 2175SOL    HW2 7889   6.042   0.622   3.714  0.9581 -0.3120 -0.5120
 2175SOL     MW 7890   5.976   0.565   3.723  0.6485  0.1455  0.1228
 2176SOL     OW 7891   5.584   0.656   3.529 -0.4086 -0.0616 -0.1745
 2176SOL    HW1 7892   5.675   0.636   3.507 -0.0776  2.6402 -1.3171
 2176SOL    HW2 7893   5.538   0.656   3.446 -1.2817 -0.4703  0.2994
 2176SOL     MW 7894   5.590   0.653   3.516 -0.4783  0.2319 -0.2604
 2177SOL     OW 7895   5.600   5.362   4.018  0.5066 -0.5317 -0.0038
 2177SOL    HW1 7896   5.622   5.449   3.985 -0.1746  0.2445  1.4897
 2177SOL    HW2 7897   5.507   5.369   4.042  0.6919 -1.3876  0.9933
 2177SOL     MW 7898   5.591   5.374   4.017  0.4425 -0.5422  0.3147
 2178SOL     OW 7899   5.262   2.101   3.643  0.0375  0.0098  0.2674
 2178SOL    HW1 7900   5.258   2.138   3.731  1.4252 -0.3933  0.5014
 2178SOL    HW2 7901   5.278   2.007   3.657  0.0427 -0.0935 -0.4075
 2178SOL     MW 7902   5.263   2.094   3.656  0.2155 -0.0551  0.2112
 2179SOL     OW 7903   0.548   2.059   0.334 -0.3994 -0.0627  0.1658
 2179SOL    HW1 7904   0.452   2.052   0.340 -0.3380 -0.9180  0.2277
 2179SOL    HW2 7905   0.579   1.969   0.350  0.4023  0.1778 -0.0542
 2179SOL     MW 7906   0.539   2.046   0.337 -0.2890 -0.1416  0.1456
 2180SOL     OW 7907   1.111   4.945   1.255  0.3651 -0.6482  0.0005
 2180SOL    HW1 7908   1.074   4.893   1.184  2.7137 -0.4342 -1.4199
 2180SOL    HW2 7909   1.114   5.034   1.221 -1.2961  0.0046  1.5022
 2180SOL     MW 7910   1.107   4.950   1.242  0.4531 -0.5374  0.0108
 2181SOL     OW 7911   3.009   3.989   4.130 -0.0309 -0.7289 -0.4329
 2181SOL    HW1 7912   2.996   3.905   4.174  1.9215 -2.7766 -3.6758
 2181SOL    HW2 7913   3.075   4.034   4.183 -0.1345 -1.7582  0.5861
 2181SOL     MW 7914   3.016   3.984   4.143  0.2058 -1.1227 -0.7172
 2182SOL     OW 7915   4.666   1.870   4.597  0.3234  0.0003 -0.1615
 2182SOL    HW1 7916   4.621   1.904   4.674  1.3670  2.9087 -0.7774
 2182SOL    HW2 7917   4.622   1.912   4.522  1.8977  0.3167 -0.9303
 2182SOL     MW 7918   4.654   1.879   4.597  0.6585  0.4131 -0.3386
 2183SOL     OW 7919   0.015   1.099   4.639  0.0349 -0.1994 -0.1741
 2183SOL    HW1 7920   0.063   1.180   4.620 -2.2011  0.8826 -1.4894
 2183SOL    HW2 7921   0.068   1.054   4.704  1.4725  2.2250  0.3985
 2183SOL     MW 7922   0.028   1.104   4.645 -0.0673  0.2495 -0.2689
 2184SOL     OW 7923   0.862   3.982   0.843  0.4102  0.1287  0.6960
 2184SOL    HW1 7924   0.891   3.957   0.755  0.4757 -1.9639  1.2789
 2184SOL    HW2 7925   0.907   3.921   0.901 -0.7280  0.5757  2.0680
 2184SOL     MW 7926   0.872   3.971   0.839  0.2729 -0.0818  0.9463
 2185SOL     OW 7927   3.793   1.741   2.911  0.5227  0.1701 -0.5261
 2185SOL    HW1 7928   3.728   1.682   2.950 -1.6645  3.0836  0.3603
 2185SOL    HW2 7929   3.746   1.783   2.839  1.3293  2.5643  0.3305
 2185SOL     MW 7930   3.779   1.739   2.906  0.3457  0.8495 -0.3033
 2186SOL     OW 7931   4.264   0.608   4.649 -0.0096 -0.1979  0.1572
 2186SOL    HW1 7932   4.340   0.657   4.615  2.8053 -2.8908  2.2501
 2186SOL    HW2 7933   4.243   0.652   4.731 -0.9698  0.7663 -0.5959
 2186SOL     MW 7934   4.271   0.620   4.655  0.2275 -0.4192  0.3285
 2187SOL     OW 7935   4.899   2.937   5.742 -0.3821  0.2205 -0.1472
 2187SOL    HW1 7936   4.806   2.927   5.718 -0.0749 -0.8039 -0.9218
 2187SOL    HW2 7937   4.947   2.895   5.670  0.6627  0.1692  0.5772
 2187SOL     MW 7938   4.893   2.930   5.729 -0.2089  0.0830 -0.1535
 2188SOL     OW 7939   2.100   3.513   2.896 -0.0531  0.5920 -0.0523
 2188SOL    HW1 7940   2.135   3.505   2.985 -0.6962  0.3097  0.1817
 2188SOL    HW2 7941   2.074   3.423   2.872  1.1321  0.4793 -0.9502
 2188SOL     MW 7942   2.101   3.500   2.904  0.0162  0.5414 -0.1371
 2189SOL     OW 7943   0.315   3.859   5.456  0.3851 -0.4668 -0.4542
 2189SOL    HW1 7944   0.363   3.872   5.537 -0.9548  0.1445  0.2511
 2189SOL    HW2 7945   0.379   3.878   5.387  1.0821  0.6151  0.4729
 2189SOL     MW 7946   0.329   3.863   5.457  0.3028 -0.2501 -0.2451
 2190SOL     OW 7947   5.147   5.623   3.672 -0.3056  0.4512  0.1895
 2190SOL    HW1 7948   5.212   5.555   3.686 -0.5421 -0.0762 -1.1621
 2190SOL    HW2 7949   5.120   5.611   3.581 -2.5517  0.4438  0.8410
 2190SOL     MW 7950   5.152   5.613   3.662 -0.6237  0.3829  0.0997
 2191SOL     OW 7951   5.306   5.067   1.862 -0.2223 -0.3877  0.3784
 2191SOL    HW1 7952   5.260   4.983   1.864  0.6987 -0.9374 -1.0651
 2191SOL    HW2 7953   5.249   5.124   1.811  0.5448 -1.0048 -1.2149
 2191SOL     MW 7954   5.293   5.063   1.856 -0.0057 -0.5369 -0.0104
 2192SOL     OW 7955   1.870   1.049   0.863 -0.6524  0.2593 -0.1961
 2192SOL    HW1 7956   1.918   1.064   0.944 -1.2099  0.4392  0.0995
 2192SOL    HW2 7957   1.934   1.069   0.794  0.0564 -0.6253  0.1873
 2192SOL     MW 7958   1.885   1.053   0.864 -0.6331  0.1690 -0.1092
 2193SOL     OW 7959   1.877   3.442   3.194 -0.1535 -0.3392 -0.7397
 2193SOL    HW1 7960   1.800   3.449   3.250 -0.4313  0.1477 -1.1837
 2193SOL    HW2 7961   1.852   3.378   3.127  0.2928 -1.1678 -0.1286
 2193SOL     MW 7962   1.864   3.435   3.193 -0.1321 -0.3827 -0.7184
 2194SOL     OW 7963   0.707   5.404   2.429 -0.1237  0.0905  0.3613
 2194SOL    HW1 7964   0.694   5.495   2.402  1.2139  0.2385  0.1626
 2194SOL    HW2 7965   0.787   5.406   2.482  0.4978 -1.1170 -0.4947
 2194SOL     MW 7966   0.716   5.416   2.432  0.1271 -0.0458  0.2265
 2195SOL     OW 7967   3.535   5.977   2.543  0.9698  0.8928  0.2835
 2195SOL    HW1 7968   3.466   5.947   2.603 -0.0003  1.2438 -0.6279
 2195SOL    HW2 7969   3.539   6.071   2.555  1.0730  0.9115  0.1136
 2195SOL     MW 7970   3.526   5.985   2.552  0.8590  0.9403  0.1452
 2196SOL     OW 7971   3.128   4.204   3.034  0.2586  0.1637 -0.9972
 2196SOL    HW1 7972   3.105   4.134   2.973  1.7873 -0.9329 -0.3537
 2196SOL    HW2 7973   3.223   4.207   3.033  0.2817  0.6333  0.7689
 2196SOL     MW 7974   3.137   4.195   3.026  0.4573  0.0834 -0.6886
 2197SOL     OW 7975   4.032   5.035   2.014  0.3715  0.4087  0.1209
 2197SOL    HW1 7976   3.974   5.012   2.086 -0.7749 -2.4877 -1.6495
 2197SOL    HW2 7977   4.111   4.982   2.029  2.0141  3.1698  1.6649
 2197SOL     MW 7978   4.035   5.026   2.025  0.4349  0.3910  0.0920
 2198SOL     OW 7979   2.901   4.180   0.597 -0.0135 -0.0883  0.1931
 2198SOL    HW1 7980   2.958   4.224   0.534  1.2701 -0.8051  0.8438
 2198SOL    HW2 7981   2.817   4.170   0.551 -0.0044  2.0781 -0.3224
 2198SOL     MW 7982   2.897   4.184   0.583  0.1521  0.0968  0.2105
 2199SOL     OW 7983   0.710   1.034   0.141  0.4647 -0.3388 -0.4287
 2199SOL    HW1 7984   0.644   1.076   0.085  1.4957 -0.6625 -1.9121
 2199SOL    HW2 7985   0.671   0.950   0.165 -0.6854  0.5105  0.7482
 2199SOL     MW 7986   0.697   1.028   0.137  0.4495 -0.2716 -0.4679
 2200SOL     OW 7987   3.183   1.370   2.532  0.4941 -0.2056 -0.1373
 2200SOL    HW1 7988   3.127   1.375   2.610  0.5187 -2.0779  0.0271
 2200SOL    HW2 7989   3.123   1.355   2.460  0.6750 -1.0909 -0.1127
 2200SOL     MW 7990   3.168   1.369   2.533  0.5205 -0.5585 -0.1132
 2201SOL     OW 7991   3.756   2.549   4.156 -0.3112 -0.5166 -0.2541
 2201SOL    HW1 7992   3.825   2.484   4.165 -0.6142 -0.7340  0.5361
 2201SOL    HW2 7993   3.712   2.550   4.241 -1.6675 -0.8105 -0.9315
 2201SOL     MW 7994   3.759   2.541   4.168 -0.5238 -0.5817 -0.2398
 2202SOL     OW 7995   2.645   0.048   3.987  0.5853  0.7442  0.8669
 2202SOL    HW1 7996   2.728   0.012   3.955  0.4204  0.8630  0.2984
 2202SOL    HW2 7997   2.670   0.103   4.062  1.2644  2.4348 -0.5564
 2202SOL     MW 7998   2.659   0.050   3.992  0.6509  0.9759  0.6115
 2203SOL     OW 7999   1.541   5.699   5.595  0.6673  0.4993 -0.1183
 2203SOL    HW1 8000   1.516   5.702   5.687  1.4243  0.6469  0.0798
 2203SOL    HW2 8001   1.570   5.609   5.581 -2.0709 -0.3217 -0.9046
 2203SOL     MW 8002   1.541   5.688   5.605  0.4138  0.4134 -0.1941
 2204SOL     OW 8003   2.619   0.438   1.274 -0.3798  0.1248 -0.8251
 2204SOL    HW1 8004   2.601   0.398   1.189  0.8699  0.0136 -1.0445
 2204SOL    HW2 8005   2.664   0.520   1.254 -1.2461  0.7442 -0.3082
 2204SOL     MW 8006   2.622   0.444   1.261 -0.3304  0.1898 -0.7869
 2205SOL     OW 8007   2.131   3.865   4.556  0.0876  0.1589  0.5233
 2205SOL    HW1 8008   2.192   3.935   4.533 -1.7108  0.7998 -2.5269
 2205SOL    HW2 8009   2.062   3.908   4.606 -0.8569  0.5523 -1.0850
 2205SOL     MW 8010   2.130   3.879   4.559 -0.2635  0.2916 -0.0725
 2206SOL     OW 8011   4.467   1.575   4.003 -0.1676  0.8909  0.6284
 2206SOL    HW1 8012   4.443   1.606   3.916  1.4696 -0.3776 -0.3170
 2206SOL    HW2 8013   4.560   1.553   3.995 -0.6388 -1.7398  1.9371
 2206SOL     MW 8014   4.476   1.576   3.991 -0.0186  0.3918  0.6747
 2207SOL     OW 8015   2.150   2.200   0.928 -0.3670 -0.0947 -0.5096
 2207SOL    HW1 8016   2.150   2.274   0.867 -0.5913  0.5893  0.3110
 2207SOL    HW2 8017   2.133   2.124   0.873  1.5237  0.2549 -1.6132
 2207SOL     MW 8018   2.148   2.200   0.913 -0.1535  0.0379 -0.5458
 2208SOL     OW 8019   5.391   5.850   4.144  0.3508 -0.5561 -0.3199
 2208SOL    HW1 8020   5.431   5.845   4.058  1.6878 -1.7504  0.3607
 2208SOL    HW2 8021   5.334   5.773   4.149  1.7676 -1.5684  0.5886
 2208SOL     MW 8022   5.389   5.840   4.134  0.7038 -0.8383 -0.1168
 2209SOL     OW 8023   2.692   1.090   4.736 -0.0433 -0.2668 -0.1783
 2209SOL    HW1 8024   2.706   1.027   4.806  0.1577 -0.4976 -0.4261
 2209SOL    HW2 8025   2.598   1.107   4.736 -0.0599 -0.3728  0.0558
 2209SOL     MW 8026   2.682   1.084   4.745 -0.0198 -0.3098 -0.1802
 2210SOL     OW 8027   4.367   4.496   4.172 -0.3200  0.2202 -0.5537
 2210SOL    HW1 8028   4.406   4.546   4.101  4.4532 -1.1297  0.9226
 2210SOL    HW2 8029   4.359   4.560   4.244 -1.5059  0.6527 -1.0570
 2210SOL     MW 8030   4.371   4.511   4.172  0.1392  0.1025 -0.4287
 2211SOL     OW 8031   4.861   2.281   3.917 -0.8599 -0.4101 -0.4541
 2211SOL    HW1 8032   4.850   2.283   4.012 -0.2822 -0.1702 -0.3914
 2211SOL    HW2 8033   4.854   2.188   3.894 -0.9549 -0.4730 -0.1713
 2211SOL     MW 8034   4.858   2.270   3.926 -0.7982 -0.3877 -0.4098
 2212SOL     OW 8035   2.945   3.544   4.749  0.2297  0.1927 -0.2836
 2212SOL    HW1 8036   3.003   3.620   4.758  1.0289 -0.2630 -1.4268
 2212SOL    HW2 8037   3.000   3.469   4.775 -0.2934 -0.0875  0.0207
 2212SOL     MW 8038   2.960   3.544   4.754  0.2651  0.0987 -0.3905
 2213SOL     OW 8039   0.109   4.219   1.781  0.0503 -0.0643 -0.0541
 2213SOL    HW1 8040   0.110   4.191   1.689  0.5952 -1.7753  0.4465
 2213SOL    HW2 8041   0.019   4.247   1.797  0.1181  0.9073 -1.2940
 2213SOL     MW 8042   0.098   4.219   1.771  0.1288 -0.1583 -0.1488
 2214SOL     OW 8043   1.215   5.773   2.501  0.2809 -0.0154  0.2004
 2214SOL    HW1 8044   1.209   5.868   2.493  1.1173 -0.0192 -0.5275
 2214SOL    HW2 8045   1.128   5.745   2.531  0.1112  0.9977  0.6543
 2214SOL     MW 8046   1.203   5.781   2.504  0.3663  0.1140  0.1655
 2215SOL     OW 8047   2.844   4.243   3.508  0.2356 -0.3842  0.2694
 2215SOL    HW1 8048   2.807   4.328   3.533  0.8810 -0.4137  1.3488
 2215SOL    HW2 8049   2.816   4.231   3.417 -0.5971  0.5791  0.3854
 2215SOL     MW 8050   2.836   4.252   3.499  0.2115 -0.2642  0.4225
 2216SOL     OW 8051   1.546   1.883   3.442  0.2928  0.0674 -0.2810
 2216SOL    HW1 8052   1.517   1.864   3.353 -1.4334  0.3981  0.2079
 2216SOL    HW2 8053   1.583   1.971   3.436 -0.8053  0.5238 -0.4530
 2216SOL     MW 8054   1.547   1.892   3.430 -0.0687  0.1682 -0.2403
 2217SOL     OW 8055   1.521   2.384   2.271  0.0385  0.1730  0.2168
 2217SOL    HW1 8056   1.467   2.386   2.350  0.1082 -0.9268  0.2927
 2217SOL    HW2 8057   1.596   2.329   2.294  0.1235 -0.0482 -0.5788
 2217SOL     MW 8058   1.524   2.377   2.284  0.0583  0.0038  0.1245
 2218SOL     OW 8059   3.399   4.275   4.003  0.2304 -0.0479  0.4640
 2218SOL    HW1 8060   3.395   4.293   4.097  0.0281  0.2429  0.4031
 2218SOL    HW2 8061   3.416   4.361   3.963 -0.6427 -0.0091  0.1712
 2218SOL     MW 8062   3.401   4.289   4.010  0.0927 -0.0057  0.4187
 2219SOL     OW 8063   5.612   0.091   1.215  0.0006  0.0648  0.5110
 2219SOL    HW1 8064   5.597   0.020   1.153 -0.7120  0.5111  0.1755
 2219SOL    HW2 8065   5.528   0.104   1.259  0.0045  1.0042  0.2547
 2219SOL     MW 8066   5.600   0.084   1.213 -0.0901  0.2422  0.4352
 2220SOL     OW 8067   5.355   4.637   3.768 -0.2203  0.1478  0.1714
 2220SOL    HW1 8068   5.354   4.733   3.772  2.4123  0.3781 -2.4736
 2220SOL    HW2 8069   5.265   4.614   3.745 -0.0982  2.3257 -3.0080
 2220SOL     MW 8070   5.344   4.647   3.765  0.1326  0.4563 -0.5741
 2221SOL     OW 8071   2.402   2.516   4.955 -0.6136  0.2820  0.2065
 2221SOL    HW1 8072   2.352   2.482   4.881 -0.9991  0.8787  0.1875
 2221SOL    HW2 8073   2.427   2.604   4.928  0.7599 -0.1442  0.0678
 2221SOL     MW 8074   2.399   2.523   4.942 -0.4873  0.3037  0.1864
 2222SOL     OW 8075   0.551   2.574   2.994 -0.3916 -0.3024 -0.1277
 2222SOL    HW1 8076   0.515   2.571   2.905 -0.4485  2.1478 -0.2261
 2222SOL    HW2 8077   0.604   2.654   2.996  0.1459 -0.6788  1.8458
 2222SOL     MW 8078   0.553   2.584   2.983 -0.3301 -0.0372  0.1123
 2223SOL     OW 8079   5.810   0.559   4.298 -0.5430 -0.1735 -0.3243
 2223SOL    HW1 8080   5.856   0.643   4.294 -0.1664 -0.3861 -0.4650
 2223SOL    HW2 8081   5.725   0.580   4.338 -0.2987  0.2082 -0.0031
 2223SOL     MW 8082   5.805   0.573   4.303 -0.4635 -0.1519 -0.3014
 2224SOL     OW 8083   3.329   4.533   1.060  0.2744  0.0068 -0.1590
 2224SOL    HW1 8084   3.318   4.439   1.068  2.6389 -0.1860  1.3823
 2224SOL    HW2 8085   3.421   4.549   1.081 -0.4775  2.8205  1.3815
 2224SOL     MW 8086   3.339   4.523   1.064  0.4811  0.3419  0.2354
 2225SOL     OW 8087   0.800   1.113   1.079 -0.1112 -0.1709 -0.6046
 2225SOL    HW1 8088   0.848   1.163   1.013 -1.1148  0.6456 -0.7429
 2225SOL    HW2 8089   0.805   1.166   1.158 -0.6686 -0.1270 -0.5908
 2225SOL     MW 8090   0.807   1.126   1.080 -0.3110 -0.0608 -0.6205
 2226SOL     OW 8091   1.919   1.016   2.880 -0.0629  0.0335 -0.2319
 2226SOL    HW1 8092   1.872   0.933   2.870  0.8271 -0.8972  2.8281
 2226SOL    HW2 8093   2.010   0.990   2.893  0.4945  1.5894 -0.9442
 2226SOL     MW 8094   1.924   1.002   2.880  0.1224  0.1136  0.0684
 2227SOL     OW 8095   3.711   1.354   0.560  0.2368 -0.2551  0.4146
 2227SOL    HW1 8096   3.801   1.325   0.570  0.0388 -0.4716  1.5931
 2227SOL    HW2 8097   3.715   1.449   0.560  0.6349 -0.2473 -1.2030
 2227SOL     MW 8098   3.723   1.362   0.561  0.2625 -0.2817  0.3584
 2228SOL     OW 8099   5.035   0.110   4.939 -0.1504 -0.1388 -0.1932
 2228SOL    HW1 8100   5.006   0.158   4.861  3.6180 -0.1598 -1.7100
 2228SOL    HW2 8101   5.064   0.179   5.000  2.2228 -0.2959 -1.0974
 2228SOL     MW 8102   5.035   0.125   4.937  0.6356 -0.1616 -0.5031
 2229SOL     OW 8103   3.098   4.494   5.383  0.1972 -0.1171  0.1293
 2229SOL    HW1 8104   3.016   4.497   5.334  0.7927 -1.0737 -0.9478
 2229SOL    HW2 8105   3.161   4.542   5.329  0.1660  1.2999  1.3259
 2229SOL     MW 8106   3.096   4.501   5.370  0.2692 -0.0582  0.1445
 2230SOL     OW 8107   4.721   2.155   0.337  0.1831  0.2442  0.9281
 2230SOL    HW1 8108   4.728   2.142   0.242  0.7650 -1.5295  1.2119
 2230SOL    HW2 8109   4.779   2.230   0.355  2.7596 -1.5637  0.3544
 2230SOL     MW 8110   4.730   2.163   0.327  0.5875 -0.2141  0.8910
 2231SOL     OW 8111   0.179   4.474   0.112  0.0925 -0.2785  0.4498
 2231SOL    HW1 8112   0.204   4.494   0.202 -0.0092 -0.3112  0.4854
 2231SOL    HW2 8113   0.166   4.380   0.110  1.1517 -0.4136  0.1305
 2231SOL     MW 8114   0.180   4.465   0.123  0.2151 -0.2995  0.4135
 2232SOL     OW 8115   2.668   0.725   3.982 -0.0265  0.1451 -0.2861
 2232SOL    HW1 8116   2.737   0.762   3.927  0.5701  0.7234  0.8429
 2232SOL    HW2 8117   2.713   0.700   4.063 -0.3542 -3.2533 -1.0894
 2232SOL     MW 8118   2.683   0.726   3.985  0.0081 -0.2160 -0.2444
 2233SOL     OW 8119   3.763   4.540   5.728 -0.0394 -0.2906  0.2961
 2233SOL    HW1 8120   3.826   4.503   5.790 -0.2082 -0.7033  0.2212
 2233SOL    HW2 8121   3.710   4.599   5.781  0.7510  0.4751  0.2565
 2233SOL     MW 8122   3.765   4.543   5.743  0.0401 -0.2456  0.2818
 2234SOL     OW 8123   1.332   0.853   4.242 -0.6510 -0.1054  0.4908
 2234SOL    HW1 8124   1.335   0.778   4.302  0.7072  1.9539  3.1498
 2234SOL    HW2 8125   1.407   0.841   4.184 -0.4056 -0.7739  0.9378
 2234SOL     MW 8126   1.342   0.842   4.243 -0.4456  0.0727  0.8883
 2235SOL     OW 8127   4.551   3.185   1.625  0.0119  0.1534 -0.0323
 2235SOL    HW1 8128   4.500   3.118   1.671  0.2312  0.2364  0.3382
 2235SOL    HW2 8129   4.513   3.189   1.537  1.3565 -1.9613 -0.7362
 2235SOL     MW 8130   4.540   3.177   1.620  0.2122 -0.1066 -0.0749
 2236SOL     OW 8131   5.895   3.955   0.386  0.0296  0.4411  0.1340
 2236SOL    HW1 8132   5.837   4.025   0.417 -1.8945 -0.3865 -1.4930
 2236SOL    HW2 8133   5.922   3.910   0.466 -1.3243  1.0382  0.9541
 2236SOL     MW 8134   5.891   3.959   0.400 -0.3896  0.4115  0.0307
 2237SOL     OW 8135   4.403   5.099   1.401 -0.1148  0.5508  0.2585
 2237SOL    HW1 8136   4.489   5.086   1.361 -0.1396  1.0094  0.0549
 2237SOL    HW2 8137   4.346   5.037   1.354 -0.0720  0.8393 -0.1792
 2237SOL     MW 8138   4.407   5.089   1.390 -0.1130  0.6466  0.1764
 2238SOL     OW 8139   2.334   3.301   0.082  0.0412 -0.6263  0.5845
 2238SOL    HW1 8140   2.392   3.365   0.123  0.3266  0.3903 -1.3050
 2238SOL    HW2 8141   2.261   3.292   0.142  1.1030 -0.2531  1.9565
 2238SOL     MW 8142   2.332   3.308   0.095  0.2134 -0.4485  0.5182
 2239SOL     OW 8143   0.039   2.166   0.571  0.5244  0.1276 -0.0735
 2239SOL    HW1 8144  -0.019   2.199   0.640 -0.6940 -1.1345 -0.4709
 2239SOL    HW2 8145   0.114   2.129   0.619 -0.7751 -1.6289  0.6582
 2239SOL     MW 8146   0.041   2.165   0.586  0.2021 -0.2587 -0.0308
 2240SOL     OW 8147   0.515   1.262   1.035 -0.2378 -0.1529  0.3961
 2240SOL    HW1 8148   0.606   1.290   1.030 -0.2775  0.0696  0.8415
 2240SOL    HW2 8149   0.519   1.167   1.038  0.0376 -0.1152  1.4464
 2240SOL     MW 8150   0.527   1.254   1.035 -0.2077 -0.1196  0.5877
 2241SOL     OW 8151   4.237   4.851   1.384 -0.3166 -0.3548 -0.9604
 2241SOL    HW1 8152   4.302   4.784   1.408 -0.2222  0.4248  0.9920
 2241SOL    HW2 8153   4.254   4.868   1.291  2.8361  0.4158 -0.2939
 2241SOL     MW 8154   4.248   4.844   1.375  0.0987 -0.1564 -0.6251
 2242SOL     OW 8155   4.750   4.317   1.262 -0.1031  0.3112  0.0581
 2242SOL    HW1 8156   4.662   4.350   1.280 -0.7094 -0.9123 -0.5691
 2242SOL    HW2 8157   4.782   4.370   1.189 -0.1999  0.9686  0.4949
 2242SOL     MW 8158   4.743   4.328   1.255 -0.1931  0.2384  0.0337
 2243SOL     OW 8159   3.269   0.668   0.040  0.1782 -0.5264  0.1388
 2243SOL    HW1 8160   3.324   0.746   0.034 -0.4653 -0.0600  0.1845
 2243SOL    HW2 8161   3.208   0.688   0.111  0.0053 -1.0685  0.1413
 2243SOL     MW 8162   3.268   0.681   0.049  0.0734 -0.5360  0.1449
 2244SOL     OW 8163   1.814   4.026   2.814 -0.3050 -0.5534 -0.0125
 2244SOL    HW1 8164   1.766   3.951   2.780 -0.3437  0.5535 -2.5241
 2244SOL    HW2 8165   1.756   4.063   2.882 -1.7142 -0.9307 -0.9848
 2244SOL     MW 8166   1.800   4.021   2.818 -0.4903 -0.4601 -0.4585
 2245SOL     OW 8167   1.253   4.462   5.155 -0.1474 -0.0548 -0.2937
 2245SOL    HW1 8168   1.276   4.452   5.062  2.1622  0.4204  0.1940
 2245SOL    HW2 8169   1.332   4.436   5.202 -0.9144  0.7949  1.5186
 2245SOL     MW 8170   1.266   4.458   5.149  0.0501  0.1154  0.0010
 2246SOL     OW 8171   1.959   1.282   3.869 -0.2736 -0.2594 -0.7783
 2246SOL    HW1 8172   2.011   1.274   3.949  0.4055  1.1038 -1.0534
 2246SOL    HW2 8173   1.868   1.287   3.900 -0.0153  0.2967 -0.0902
 2246SOL     MW 8174   1.954   1.282   3.884 -0.1537 -0.0137 -0.7253
 2247SOL     OW 8175   2.147   4.734   3.454  0.3197 -0.4777  0.0001
 2247SOL    HW1 8176   2.138   4.663   3.390  0.0439  0.2195 -0.7458
 2247SOL    HW2 8177   2.139   4.814   3.402 -2.0157  0.0944  1.1731
 2247SOL     MW 8178   2.145   4.735   3.439 -0.0145 -0.3157  0.0546
 2248SOL     OW 8179   2.660   4.366   0.956 -0.0638  0.1147 -0.0522
 2248SOL    HW1 8180   2.654   4.308   1.031 -0.3381  1.1042  0.7009
 2248SOL    HW2 8181   2.710   4.442   0.987  1.9492 -0.5558 -1.5655
 2248SOL     MW 8182   2.666   4.369   0.969  0.1590  0.1554 -0.1495
 2249SOL     OW 8183   3.584   3.554   5.481 -0.0843  0.3872  0.4011
 2249SOL    HW1 8184   3.564   3.648   5.482 -1.3000  0.1244  0.9901
 2249SOL    HW2 8185   3.612   3.534   5.570 -1.8368 -0.2300  0.8292
 2249SOL     MW 8186   3.585   3.563   5.492 -0.4644  0.2744  0.5312
 2250SOL     OW 8187   5.883   2.868   5.675  0.8488 -0.3588  0.1575
 2250SOL    HW1 8188   5.874   2.919   5.594  0.0154 -0.6031  0.0963
 2250SOL    HW2 8189   5.902   2.779   5.646  0.5401 -0.4483  0.2281
 2250SOL     MW 8190   5.885   2.863   5.661  0.7024 -0.4017  0.1588
 2251SOL     OW 8191   0.690   0.170   5.040 -0.4075 -0.8142  0.0770
 2251SOL    HW1 8192   0.728   0.130   4.962  0.5778  1.1263 -0.4716
 2251SOL    HW2 8193   0.757   0.158   5.108 -0.4677 -0.8472  0.1311
 2251SOL     MW 8194   0.704   0.163   5.039 -0.2891 -0.5700  0.0138
 2252SOL     OW 8195   5.313   5.389   4.084 -0.1845 -0.0409 -0.4499
 2252SOL    HW1 8196   5.270   5.304   4.089 -2.4684  1.0984  0.0179
 2252SOL    HW2 8197   5.304   5.416   3.993 -2.8477  1.3336  0.1553
 2252SOL     MW 8198   5.306   5.382   4.073 -0.8178  0.2809 -0.3128
 2253SOL     OW 8199   1.052   2.086   1.323 -0.4240 -0.5578  0.1597
 2253SOL    HW1 8200   0.984   2.039   1.276  0.3517 -0.3218 -1.2141
 2253SOL    HW2 8201   1.134   2.048   1.293  0.0742 -0.8046  1.7618
 2253SOL     MW 8202   1.054   2.075   1.313 -0.2609 -0.5593  0.1891
 2254SOL     OW 8203   1.023   2.275   5.021 -0.2038 -0.1317 -0.1419
 2254SOL    HW1 8204   0.946   2.331   5.011 -0.5475 -0.4114  0.8726
 2254SOL    HW2 8205   1.097   2.336   5.023 -0.2055  0.0225 -2.9955
 2254SOL     MW 8206   1.023   2.290   5.020 -0.2481 -0.1478 -0.3777
 2255SOL     OW 8207   4.898   4.520   1.854  0.1581  0.1959 -1.1989
 2255SOL    HW1 8208   4.916   4.584   1.785  2.0076  1.8443  0.7455
 2255SOL    HW2 8209   4.820   4.473   1.823  0.8042  1.0244 -4.2812
 2255SOL     MW 8210   4.890   4.523   1.841  0.4778  0.5126 -1.3447
 2256SOL     OW 8211   0.995   3.282   5.390 -0.3041  0.2903  0.0004
 2256SOL    HW1 8212   0.918   3.339   5.396  1.1646  2.3279  0.0357
 2256SOL    HW2 8213   0.959   3.194   5.375 -2.6025  1.3403 -0.8685
 2256SOL     MW 8214   0.980   3.278   5.389 -0.4103  0.6857 -0.1068
 2257SOL     OW 8215   3.380   5.720   0.637  0.0274 -0.0752 -0.2522
 2257SOL    HW1 8216   3.380   5.779   0.713 -3.0481 -0.6717  0.2573
 2257SOL    HW2 8217   3.433   5.645   0.665  0.4588  0.5475  0.6193
 2257SOL     MW 8218   3.387   5.718   0.651 -0.3111 -0.0710 -0.0754
 2258SOL     OW 8219   4.008   0.805   1.772 -0.1698 -0.6431  0.0011
 2258SOL    HW1 8220   3.928   0.778   1.727  0.2273  0.3935 -1.3601
 2258SOL    HW2 8221   3.989   0.894   1.803 -0.3104 -1.2127  1.5693
 2258SOL     MW 8222   3.995   0.813   1.770 -0.1366 -0.5834  0.0275
 2259SOL     OW 8223   2.000   3.423   4.603 -0.5383 -0.3333  0.0287
 2259SOL    HW1 8224   1.920   3.411   4.552  0.0971  0.3486 -1.1627
 2259SOL    HW2 8225   1.973   3.472   4.680 -1.6501 -2.0322  0.7511
 2259SOL     MW 8226   1.986   3.428   4.607 -0.5994 -0.4635 -0.0315
 2260SOL     OW 8227   2.010   4.918   1.060 -0.4906  0.5398 -0.1459
 2260SOL    HW1 8228   2.014   4.823   1.045  0.4086  0.1557  2.2407
 2260SOL    HW2 8229   2.080   4.954   1.006 -2.8777  0.2628 -3.5994
 2260SOL     MW 8230   2.019   4.910   1.051 -0.6812  0.4549 -0.2825
 2261SOL     OW 8231   3.116   3.105   3.832 -0.6282  0.5086 -0.7422
 2261SOL    HW1 8232   3.166   3.031   3.867 -2.0544  0.6383  1.6522
 2261SOL    HW2 8233   3.028   3.071   3.821 -1.0413  1.5444 -0.6835
 2261SOL     MW 8234   3.111   3.091   3.835 -0.8638  0.6578 -0.4282
 2262SOL     OW 8235   3.790   2.138   4.068  0.4139  0.2411 -0.2210
 2262SOL    HW1 8236   3.765   2.141   3.975  1.4340 -1.2204 -0.5515
 2262SOL    HW2 8237   3.707   2.129   4.115  0.0945 -2.0390 -1.1636
 2262SOL     MW 8238   3.776   2.138   4.062  0.5035 -0.2379 -0.3843
 2263SOL     OW 8239   0.755   4.337   3.520  0.1248  0.1513  0.2228
 2263SOL    HW1 8240   0.840   4.306   3.489  0.5003  0.7478  0.6555
 2263SOL    HW2 8241   0.735   4.412   3.465  1.1259  1.6586  1.8623
 2263SOL     MW 8242   0.763   4.343   3.509  0.3010  0.4210  0.4883
 2264SOL     OW 8243   4.145   3.636   4.379 -0.0750 -0.5484 -0.8370
 2264SOL    HW1 8244   4.224   3.690   4.381  0.0577 -0.7565  2.0096
 2264SOL    HW2 8245   4.093   3.672   4.308  0.6829  2.3595  0.0118
 2264SOL     MW 8246   4.149   3.648   4.371  0.0391 -0.2027 -0.3638
 2265SOL     OW 8247   2.979   5.040   1.427 -0.1052 -0.4251 -0.1685
 2265SOL    HW1 8248   3.053   4.981   1.441 -0.0062 -0.5065 -1.0210
 2265SOL    HW2 8249   2.905   4.982   1.409 -0.0690 -0.2934 -0.7302
 2265SOL     MW 8250   2.979   5.025   1.427 -0.0880 -0.4191 -0.3496
 2266SOL     OW 8251   3.231   1.345   4.892 -0.3214 -0.5708  0.2737
 2266SOL    HW1 8252   3.152   1.394   4.870  0.1512 -0.5116 -1.3183
 2266SOL    HW2 8253   3.207   1.253   4.877 -0.2093 -0.5863  0.1931
 2266SOL     MW 8254   3.218   1.339   4.887 -0.2465 -0.5653  0.0596
 2267SOL     OW 8255   1.507   4.844   1.748  0.3176 -0.3449  0.2633
 2267SOL    HW1 8256   1.454   4.782   1.799 -0.5184  1.6894  1.9611
 2267SOL    HW2 8257   1.595   4.834   1.784  0.1251 -0.3128  0.7453
 2267SOL     MW 8258   1.511   4.834   1.759  0.1858 -0.0811  0.5425
 2268SOL     OW 8259   4.891   5.767   0.326  0.2072 -0.6807 -0.0717
 2268SOL    HW1 8260   4.818   5.828   0.333 -0.4046 -0.9859 -3.0540
 2268SOL    HW2 8261   4.968   5.820   0.347 -0.7599 -0.1752  2.3685
 2268SOL     MW 8262   4.892   5.782   0.330  0.0048 -0.6547 -0.1411
 2269SOL     OW 8263   0.939   2.029   1.564  0.2944 -0.1718 -0.7244
 2269SOL    HW1 8264   1.001   2.080   1.616  0.9328 -1.7059  0.0614
 2269SOL    HW2 8265   0.971   2.036   1.474 -0.4969  2.0376 -0.8821
 2269SOL     MW 8266   0.951   2.037   1.559  0.2748 -0.0854 -0.6441
 2270SOL     OW 8267   2.059   1.235   1.619  0.0576 -0.6749  0.1184
 2270SOL    HW1 8268   2.061   1.157   1.675  1.2542 -1.0830 -0.4808
 2270SOL    HW2 8269   1.967   1.243   1.593 -0.5052 -0.5059  2.0966
 2270SOL     MW 8270   2.047   1.226   1.623  0.1388 -0.7056  0.2949
 2271SOL     OW 8271   0.813   1.749   4.692 -0.0911  0.0550 -0.5362
 2271SOL    HW1 8272   0.837   1.695   4.617  0.3208 -0.3644 -0.1093
 2271SOL    HW2 8273   0.868   1.827   4.685 -0.3584  0.2127 -0.9022
 2271SOL     MW 8274   0.823   1.752   4.682 -0.0727  0.0215 -0.5283
 2272SOL     OW 8275   0.025   3.943   2.360 -0.2501  0.0169  0.0074
 2272SOL    HW1 8276  -0.057   3.990   2.346 -0.5741 -1.6940 -4.7902
 2272SOL    HW2 8277   0.092   3.997   2.318 -0.1703 -2.1669 -2.8420
 2272SOL     MW 8278   0.023   3.956   2.353 -0.2813 -0.4818 -0.9716
 2273SOL     OW 8279   1.257   4.387   4.145  0.5059  0.7358  0.9409
 2273SOL    HW1 8280   1.296   4.363   4.229  1.1874  2.1023  1.0299
 2273SOL    HW2 8281   1.326   4.433   4.099 -0.3706  1.4064  0.2805
 2273SOL     MW 8282   1.271   4.390   4.150  0.4810  0.9966  0.8678
 2274SOL     OW 8283   1.043   0.582   1.868  0.0666  0.0920 -0.2669
 2274SOL    HW1 8284   1.081   0.518   1.808  0.3619  1.0463 -1.1117
 2274SOL    HW2 8285   1.117   0.632   1.900 -0.0904 -0.4071  0.9094
 2274SOL     MW 8286   1.057   0.580   1.865  0.0843  0.1503 -0.2245
 2275SOL     OW 8287   4.930   1.717   1.060  0.0692 -0.4220  0.5106
 2275SOL    HW1 8288   4.903   1.729   0.969  0.7401 -0.4151  0.3072
 2275SOL    HW2 8289   4.951   1.624   1.067  0.1861 -0.3895  0.6092
 2275SOL     MW 8290   4.930   1.707   1.049  0.1702 -0.4169  0.4972
 2276SOL     OW 8291   2.236   3.001   2.817 -0.8670 -0.0270  0.0774
 2276SOL    HW1 8292   2.178   3.075   2.836 -0.4507 -0.5291  3.4251
 2276SOL    HW2 8293   2.201   2.929   2.869 -0.1671 -1.7263 -1.7343
 2276SOL     MW 8294   2.224   3.002   2.826 -0.7241 -0.3092  0.2739
 2277SOL     OW 8295   3.726   0.530   5.779 -0.2101  0.0905  0.3277
 2277SOL    HW1 8296   3.648   0.570   5.741 -1.1422 -3.3055 -1.5999
 2277SOL    HW2 8297   3.797   0.556   5.722 -0.5519  0.1990 -0.0488
 2277SOL     MW 8298   3.725   0.538   5.767 -0.3734 -0.3303  0.0329
 2278SOL     OW 8299   5.900   3.629   1.358 -0.7341 -0.2228  0.5303
 2278SOL    HW1 8300   5.866   3.640   1.446 -2.3866 -1.0218  0.0180
 2278SOL    HW2 8301   5.905   3.534   1.346 -2.0395 -0.1563 -0.7625
 2278SOL     MW 8302   5.896   3.618   1.368 -1.1129 -0.3166  0.2992
 2279SOL     OW 8303   0.955   0.744   4.843  1.1740 -0.4412 -0.3705
 2279SOL    HW1 8304   1.041   0.718   4.811  0.7664 -0.4359 -1.4937
 2279SOL    HW2 8305   0.947   0.837   4.820  1.6079  0.0474  1.3795
 2279SOL     MW 8306   0.965   0.753   4.836  1.1773 -0.3780 -0.2904
 2280SOL     OW 8307   0.524   2.480   0.806 -0.7898 -0.4223 -0.4546
 2280SOL    HW1 8308   0.466   2.418   0.849 -0.8278 -0.3113 -0.3437
 2280SOL    HW2 8309   0.612   2.454   0.834 -0.6624 -1.5490 -1.8626
 2280SOL     MW 8310   0.528   2.469   0.815 -0.7784 -0.5522 -0.6206
 2281SOL     OW 8311   3.537   4.679   2.903  0.4736 -0.2209 -0.2997
 2281SOL    HW1 8312   3.632   4.674   2.898  0.5519 -0.3980  1.2216
 2281SOL    HW2 8313   3.506   4.598   2.862  1.0545 -1.3558  1.4528
 2281SOL     MW 8314   3.545   4.668   2.897  0.5579 -0.3891  0.1194
 2282SOL     OW 8315   1.312   3.586   0.561  0.3563 -0.0578  0.6752
 2282SOL    HW1 8316   1.234   3.594   0.615  0.2288  0.9384  0.3651
 2282SOL    HW2 8317   1.330   3.676   0.532  0.4012 -0.5746 -0.9447
 2282SOL     MW 8318   1.304   3.599   0.564  0.3457  0.0038  0.4281
 2283SOL     OW 8319   1.059   2.000   5.062  0.6818 -0.1663 -0.0271
 2283SOL    HW1 8320   1.143   2.012   5.107 -0.7253 -1.2553  2.9902
 2283SOL    HW2 8321   1.027   2.089   5.049  0.9119  0.1657  1.5524
 2283SOL     MW 8322   1.066   2.013   5.066  0.5311 -0.2635  0.5612
 2284SOL     OW 8323   3.579   5.982   4.814  0.1050 -0.0207 -0.3407
 2284SOL    HW1 8324   3.671   5.959   4.799  0.1844  1.4808 -2.3498
 2284SOL    HW2 8325   3.531   5.900   4.800  1.0688 -0.6607  0.0659
 2284SOL     MW 8326   3.584   5.969   4.811  0.2387  0.0896 -0.5460
 2285SOL     OW 8327   1.836   4.102   2.107 -0.0226 -0.1459 -0.2349
 2285SOL    HW1 8328   1.809   4.160   2.036  1.3834  1.8356  0.7900
 2285SOL    HW2 8329   1.931   4.115   2.114  0.0572 -1.3215  1.0961
 2285SOL     MW 8330   1.845   4.111   2.099  0.1675 -0.0424  0.0663
 2286SOL     OW 8331   1.685   0.330   0.157 -0.8390 -0.1227 -0.7375
 2286SOL    HW1 8332   1.767   0.335   0.206 -0.9807  1.1637 -0.6122
 2286SOL    HW2 8333   1.617   0.353   0.221 -1.4121 -2.1259 -0.5881
 2286SOL     MW 8334   1.686   0.334   0.172 -0.9307 -0.2145 -0.7024
 2287SOL     OW 8335   1.884   4.971   3.066  0.5366 -0.6735 -0.2587
 2287SOL    HW1 8336   1.834   4.917   3.004  1.3101 -1.7305  0.0212
 2287SOL    HW2 8337   1.937   5.029   3.011 -0.8500  0.3234 -0.5565
 2287SOL     MW 8338   1.885   4.971   3.051  0.4581 -0.6809 -0.2608
 2288SOL     OW 8339   2.605   0.123   0.417  0.4457  0.0030  0.1270
 2288SOL    HW1 8340   2.596   0.210   0.457 -0.4663  0.3706 -0.8580
 2288SOL    HW2 8341   2.516   0.089   0.412  0.4349  0.3338 -2.3882
 2288SOL     MW 8342   2.593   0.130   0.422  0.3273  0.0924 -0.3211
 2289SOL     OW 8343   4.428   1.609   1.379  0.4234 -0.5568 -0.5972
 2289SOL    HW1 8344   4.382   1.545   1.325 -2.9629  0.3144  1.1385
 2289SOL    HW2 8345   4.425   1.573   1.468  2.3036 -0.0190 -0.2874
 2289SOL     MW 8346   4.422   1.597   1.384  0.2308 -0.3765 -0.3353
 2290SOL     OW 8347   3.045   5.425   1.377 -0.0721 -0.2171 -0.1859
 2290SOL    HW1 8348   3.074   5.340   1.410  0.7590  0.2069  0.1999
 2290SOL    HW2 8349   3.059   5.485   1.451 -2.2435 -0.0538  0.1157
 2290SOL     MW 8350   3.050   5.422   1.391 -0.2434 -0.1416 -0.0979
 2291SOL     OW 8351   3.336   5.914   1.659 -0.1697 -0.1171 -0.1592
 2291SOL    HW1 8352   3.241   5.906   1.652  0.0422 -1.4534 -1.7757
 2291SOL    HW2 8353   3.353   5.918   1.753 -1.7030 -1.5736  0.2093
 2291SOL     MW 8354   3.326   5.914   1.670 -0.3388 -0.4745 -0.3189
 2292SOL     OW 8355   2.250   4.066   2.929  0.2494  0.4124  0.1214
 2292SOL    HW1 8356   2.340   4.080   2.961  0.6724 -1.5890 -0.1506
 2292SOL    HW2 8357   2.242   3.971   2.921 -1.6287  0.6253 -0.6648
 2292SOL     MW 8358   2.261   4.056   2.932  0.0634  0.1836 -0.0138
 2293SOL     OW 8359   1.439   0.619   1.889 -0.1677 -0.1986 -0.3039
 2293SOL    HW1 8360   1.371   0.632   1.954 -0.5084 -0.8767 -0.5214
 2293SOL    HW2 8361   1.423   0.531   1.853  2.9270 -1.9094  2.1928
 2293SOL     MW 8362   1.428   0.609   1.892  0.1848 -0.5044 -0.0122
 2294SOL     OW 8363   0.692   3.243   1.475 -0.6256  0.0756 -0.3834
 2294SOL    HW1 8364   0.678   3.336   1.455  0.9138  0.5960  0.7937
 2294SOL    HW2 8365   0.771   3.243   1.531 -1.5254 -1.7876  0.9316
 2294SOL     MW 8366   0.701   3.255   1.480 -0.5437 -0.0963 -0.0644
 2295SOL     OW 8367   3.661   0.643   1.904 -0.6152 -0.9736 -0.2134
 2295SOL    HW1 8368   3.569   0.638   1.928 -0.7169  0.0945 -0.3423
 2295SOL    HW2 8369   3.695   0.717   1.955  0.3813 -1.9119  0.4914
 2295SOL     MW 8370   3.654   0.652   1.913 -0.5004 -0.9570 -0.1397
 2296SOL     OW 8371   3.341   0.177   0.646  0.2163 -0.0810  0.7869
 2296SOL    HW1 8372   3.304   0.172   0.735 -0.4343  2.9181  0.7202
 2296SOL    HW2 8373   3.435   0.189   0.660  0.6473 -3.1433  0.9816
 2296SOL     MW 8374   3.348   0.178   0.659  0.1879 -0.0892  0.8034
 2297SOL     OW 8375   3.294   1.177   3.993  0.4945  0.0900 -0.5522
 2297SOL    HW1 8376   3.225   1.186   4.058 -0.2721  0.3806 -1.3898
 2297SOL    HW2 8377   3.277   1.092   3.951  1.1876 -0.2550 -0.1424
 2297SOL     MW 8378   3.283   1.167   3.996  0.4849  0.0832 -0.6070
 2298SOL     OW 8379   0.522   4.363   5.159 -0.1277  0.0004  0.1994
 2298SOL    HW1 8380   0.438   4.350   5.116 -0.4774  1.2386  0.4928
 2298SOL    HW2 8381   0.539   4.457   5.151  0.9214 -0.1364  0.7055
 2298SOL     MW 8382   0.514   4.374   5.153 -0.0381  0.1416  0.3018
 2299SOL     OW 8383   5.750   0.859   5.426  0.2676 -0.3953  0.2966
 2299SOL    HW1 8384   5.750   0.953   5.443  3.3887 -0.4540  0.8649
 2299SOL    HW2 8385   5.732   0.819   5.511 -0.3110 -0.3507  0.1999
 2299SOL     MW 8386   5.747   0.866   5.439  0.5932 -0.3971  0.3572
 2300SOL     OW 8387   2.259   2.903   2.504 -0.4007  0.5293  0.0666
 2300SOL    HW1 8388   2.180   2.851   2.485  0.6154 -0.8828 -0.3795
 2300SOL    HW2 8389   2.226   2.982   2.546 -2.0526 -0.1296  0.0500
 2300SOL     MW 8390   2.244   2.906   2.507 -0.4821  0.2642  0.0072
 2301SOL     OW 8391   1.901   3.226   0.467 -0.3934  0.4624 -0.1196
 2301SOL    HW1 8392   1.831   3.160   0.469  0.4184 -0.4177 -0.6802
 2301SOL    HW2 8393   1.878   3.286   0.538 -1.8988  0.3625 -0.5106
 2301SOL     MW 8394   1.889   3.225   0.477 -0.4822  0.3369 -0.2414
 2302SOL     OW 8395   4.771   0.048   1.423  0.2970  0.0395 -0.4146
 2302SOL    HW1 8396   4.692   0.054   1.370 -1.6190  1.2634  2.4701
 2302SOL    HW2 8397   4.811  -0.035   1.398 -2.3626 -1.0176 -1.2751
 2302SOL     MW 8398   4.766   0.038   1.413 -0.2890  0.0608 -0.1554
 2303SOL     OW 8399   5.922   0.041   0.882  0.2528  0.1532 -0.8205
 2303SOL    HW1 8400   5.877   0.089   0.813  1.6407 -1.2176 -2.7168
 2303SOL    HW2 8401   5.882  -0.046   0.881 -0.2791  0.3623  0.6647
 2303SOL     MW 8402   5.911   0.036   0.873  0.3624  0.0043 -0.8732
 2304SOL     OW 8403   4.926   2.829   0.343 -0.4844  0.0979 -0.3244
 2304SOL    HW1 8404   4.997   2.786   0.390 -0.9889 -0.0000  0.3479
 2304SOL    HW2 8405   4.945   2.812   0.250  1.9106  2.4450 -0.3303
 2304SOL     MW 8406   4.937   2.821   0.337 -0.2422  0.3858 -0.2391
 2305SOL     OW 8407   1.190   2.220   5.503 -0.4030  0.2076  0.6621
 2305SOL    HW1 8408   1.133   2.210   5.579 -1.5988  0.7271 -0.1602
 2305SOL    HW2 8409   1.144   2.174   5.432 -0.0831  1.1200 -0.1458
 2305SOL     MW 8410   1.177   2.213   5.504 -0.5151  0.3908  0.4539
 2306SOL     OW 8411   2.629   2.115   4.487 -0.3787  0.2438  0.2058
 2306SOL    HW1 8412   2.712   2.162   4.478 -0.6384  0.8445  0.8818
 2306SOL    HW2 8413   2.563   2.178   4.461 -0.5711 -0.5569 -1.3171
 2306SOL     MW 8414   2.631   2.129   4.483 -0.4365  0.2182  0.0973
 2307SOL     OW 8415   3.768   1.655   3.372 -0.0453  0.2046  0.4714
 2307SOL    HW1 8416   3.774   1.729   3.313 -0.5143 -0.7265 -0.7669
 2307SOL    HW2 8417   3.674   1.644   3.388 -0.0007 -0.2764  0.4309
 2307SOL     MW 8418   3.757   1.663   3.367 -0.0994  0.0238  0.3078
 2308SOL     OW 8419   0.876   5.844   1.002  0.2326  0.2410 -0.1958
 2308SOL    HW1 8420   0.799   5.833   1.059  0.6232 -1.5751  0.0195
 2308SOL    HW2 8421   0.841   5.836   0.913  0.5883 -4.0969 -0.0599
 2308SOL     MW 8422   0.861   5.842   0.998  0.3281 -0.5465 -0.1508
 2309SOL     OW 8423   2.053   2.597   0.787  0.3365 -0.3765 -0.2679
 2309SOL    HW1 8424   2.110   2.520   0.786 -1.4476 -1.7670  0.1870
 2309SOL    HW2 8425   2.041   2.616   0.880 -1.3081 -1.1968 -0.2865
 2309SOL     MW 8426   2.058   2.590   0.799 -0.1025 -0.6597 -0.2121
 2310SOL     OW 8427   4.580   1.674   5.574  0.3097  0.4978 -0.1812
 2310SOL    HW1 8428   4.646   1.619   5.616 -1.6890 -4.4858 -3.0423
 2310SOL    HW2 8429   4.519   1.696   5.644  1.4799 -0.4894  1.1764
 2310SOL     MW 8430   4.580   1.669   5.588  0.2036 -0.2666 -0.3734
 2311SOL     OW 8431   3.341   5.127   4.068 -0.2265 -0.1288  0.3678
 2311SOL    HW1 8432   3.422   5.131   4.119 -0.4322 -0.9300  0.7643
 2311SOL    HW2 8433   3.358   5.184   3.992  0.3097  0.5646  0.9930
 2311SOL     MW 8434   3.354   5.135   4.065 -0.1841 -0.1431  0.4988
 2312SOL     OW 8435   0.808   3.467   5.509 -0.1410 -0.0259  0.4006
 2312SOL    HW1 8436   0.796   3.496   5.599 -2.6875  1.7633 -0.4606
 2312SOL    HW2 8437   0.732   3.413   5.490  0.3596 -0.3753 -0.6658
 2312SOL     MW 8438   0.797   3.464   5.518 -0.4029  0.1581  0.1535
 2313SOL     OW 8439   4.633   1.510   1.168 -0.0143  0.3148 -0.2371
 2313SOL    HW1 8440   4.672   1.531   1.253  0.2349  2.7557 -0.9194
 2313SOL    HW2 8441   4.579   1.433   1.185  1.7230 -0.5436  1.6591
 2313SOL     MW 8442   4.631   1.503   1.182  0.2403  0.5175 -0.0818
 2314SOL     OW 8443   2.113   1.930   2.237  0.2232  0.6367 -0.7412
 2314SOL    HW1 8444   2.135   1.933   2.144  0.0352  1.2103 -0.7700
 2314SOL    HW2 8445   2.018   1.934   2.240  0.1917 -0.0816 -0.5470
 2314SOL     MW 8446   2.104   1.931   2.226  0.1948  0.6183 -0.7203
 2315SOL     OW 8447   1.694   4.404   0.890 -0.1231  0.0182  0.4388
 2315SOL    HW1 8448   1.788   4.423   0.883 -0.0212 -1.0524 -1.6376
 2315SOL    HW2 8449   1.671   4.428   0.980  1.7889  1.7915  0.4936
 2315SOL     MW 8450   1.703   4.409   0.901  0.1347  0.1082  0.1801
 2316SOL     OW 8451   0.755   0.470   3.846  0.0335  0.3658  0.1303
 2316SOL    HW1 8452   0.721   0.399   3.792 -0.2193 -0.4887  1.3759
 2316SOL    HW2 8453   0.814   0.426   3.908  0.2441  1.3096  0.6098
 2316SOL     MW 8454   0.758   0.455   3.847  0.0281  0.3772  0.3510
 2317SOL     OW 8455   5.757   0.098   4.513 -0.2064 -0.3829 -0.2111
 2317SOL    HW1 8456   5.694   0.035   4.478 -0.6660  0.3081 -0.6520
 2317SOL    HW2 8457   5.715   0.184   4.499  0.6483  0.0527 -0.1254
 2317SOL     MW 8458   5.744   0.101   4.507 -0.1559 -0.2387 -0.2565
 2318SOL     OW 8459   0.930   5.150   4.926  0.2510 -0.1966 -0.3959
 2318SOL    HW1 8460   1.006   5.206   4.940  0.5553 -0.6843 -0.0747
 2318SOL    HW2 8461   0.856   5.203   4.954  0.6337 -0.3318  0.9395
 2318SOL     MW 8462   0.930   5.164   4.932  0.3389 -0.2761 -0.1841
 2319SOL     OW 8463   1.498   4.226   2.814  0.2143 -0.2965  0.1952
 2319SOL    HW1 8464   1.408   4.195   2.800  0.2097 -1.2563  2.1264
 2319SOL    HW2 8465   1.525   4.184   2.896  2.1247  0.6607  0.0808
 2319SOL     MW 8466   1.490   4.217   2.823  0.4582 -0.2971  0.4277
 2320SOL     OW 8467   4.610   0.398   2.909  0.0304 -0.2073 -0.4161
 2320SOL    HW1 8468   4.517   0.394   2.885 -0.4743  0.4710  1.3538
 2320SOL    HW2 8469   4.630   0.492   2.914  0.3849 -0.3309  0.7399
 2320SOL     MW 8470   4.601   0.410   2.907  0.0110 -0.1363 -0.0415
 2321SOL     OW 8471   2.190   4.487   2.621 -0.3014  0.5103  0.1266
 2321SOL    HW1 8472   2.208   4.460   2.532 -0.8442  1.0415 -0.1481
 2321SOL    HW2 8473   2.246   4.431   2.675 -0.2174 -0.0362 -0.5210
 2321SOL     MW 8474   2.199   4.477   2.617 -0.3600  0.5083  0.0086
 2322SOL     OW 8475   2.576   4.584   2.290  0.5786 -0.3637  0.4603
 2322SOL    HW1 8476   2.481   4.572   2.297  0.6334 -0.6523  0.7394
 2322SOL    HW2 8477   2.605   4.509   2.239  0.8174 -0.9741  1.4805
 2322SOL     MW 8478   2.567   4.573   2.284  0.6161 -0.4783  0.6266
 2323SOL     OW 8479   2.638   5.429   2.112 -0.1492  0.3038 -0.1563
 2323SOL    HW1 8480   2.695   5.372   2.061  0.7094  0.2229  0.8814
 2323SOL    HW2 8481   2.560   5.441   2.057  0.3610 -0.5376 -1.0692
 2323SOL     MW 8482   2.635   5.423   2.099  0.0262  0.1855 -0.1404
 2324SOL     OW 8483   3.594   4.599   2.190  0.3030  0.0453 -0.2133
 2324SOL    HW1 8484   3.610   4.528   2.252  1.2616 -0.2537 -0.7869
 2324SOL    HW2 8485   3.533   4.562   2.127 -1.0059  0.4883  0.7861
 2324SOL     MW 8486   3.588   4.585   2.190  0.2582  0.0639 -0.1588
 2325SOL     OW 8487   0.514   5.231   5.828  0.3747 -0.6300 -0.3910
 2325SOL    HW1 8488   0.562   5.179   5.892 -0.7531 -0.1198  0.8797
 2325SOL    HW2 8489   0.577   5.298   5.801  0.4083  0.0336  1.2578
 2325SOL     MW 8490   0.528   5.233   5.833  0.2345 -0.4797 -0.0176
 2326SOL     OW 8491   4.592   3.011   2.154 -0.2382 -0.4494 -0.1598
 2326SOL    HW1 8492   4.608   3.096   2.113 -0.2333 -1.0011 -1.3514
 2326SOL    HW2 8493   4.544   3.031   2.234  2.4892  0.9034  1.1913
 2326SOL     MW 8494   4.588   3.024   2.159  0.1116 -0.3467 -0.1395
 2327SOL     OW 8495   4.891   1.101   0.896  0.5897 -0.0848  0.6044
 2327SOL    HW1 8496   4.983   1.124   0.888  0.4469  1.3601  2.7241
 2327SOL    HW2 8497   4.846   1.184   0.906 -0.9589 -0.7766 -0.4491
 2327SOL     MW 8498   4.897   1.114   0.897  0.3734  0.0116  0.7409
 2328SOL     OW 8499   1.770   2.179   1.909 -0.3283  0.1252 -0.0090
 2328SOL    HW1 8500   1.755   2.112   1.843 -0.2361  0.8288 -0.7536
 2328SOL    HW2 8501   1.692   2.176   1.965 -0.7004 -0.0270 -0.5426
 2328SOL     MW 8502   1.758   2.170   1.908 -0.3643  0.1955 -0.1725
 2329SOL     OW 8503   4.718   2.490   4.354  0.0489 -0.0160 -0.5103
 2329SOL    HW1 8504   4.723   2.443   4.437 -3.3047  0.3949  0.0219
 2329SOL    HW2 8505   4.769   2.437   4.292  2.3520 -0.4590  1.7156
 2329SOL     MW 8506   4.725   2.478   4.356 -0.0854 -0.0200 -0.1569
 2330SOL     OW 8507   0.193   0.555   2.103  0.0339  0.1327  0.4567
 2330SOL    HW1 8508   0.226   0.635   2.062 -0.4005  0.5086  0.8207
 2330SOL    HW2 8509   0.114   0.584   2.150 -1.2378 -0.8803 -1.0086
 2330SOL     MW 8510   0.187   0.569   2.104 -0.1845  0.0511  0.3154
 2331SOL     OW 8511   2.738   0.450   2.487  0.4940 -0.4448 -0.0818
 2331SOL    HW1 8512   2.724   0.421   2.397  0.2998  0.5164 -0.3634
 2331SOL    HW2 8513   2.823   0.413   2.511  0.3028 -1.1490 -0.4726
 2331SOL     MW 8514   2.747   0.441   2.479  0.4449 -0.4119 -0.1681
 2332SOL     OW 8515   0.236   0.643   5.727 -0.1686  0.0401 -0.7135
 2332SOL    HW1 8516   0.157   0.607   5.767  0.0458  2.8588  2.4200
 2332SOL    HW2 8517   0.220   0.637   5.633 -2.8212 -2.1726 -0.1755
 2332SOL     MW 8518   0.224   0.638   5.720 -0.4807  0.1177 -0.2437
 2333SOL     OW 8519   1.951   5.730   3.177 -0.9513  0.1335 -0.3611
 2333SOL    HW1 8520   1.983   5.744   3.266  0.7869  1.2578 -1.1239
 2333SOL    HW2 8521   1.992   5.648   3.149  1.6263  1.7402 -1.4531
 2333SOL     MW 8522   1.961   5.721   3.185 -0.3989  0.4830 -0.5987
 2334SOL     OW 8523   4.882   1.712   2.387 -0.1790 -0.6046  0.1668
 2334SOL    HW1 8524   4.835   1.682   2.310 -0.4416 -1.4429  0.6369
 2334SOL    HW2 8525   4.943   1.640   2.406 -0.9986 -0.9803  1.4671
 2334SOL     MW 8526   4.884   1.699   2.380 -0.3171 -0.7600  0.3932
 2335SOL     OW 8527   1.286   3.718   4.449 -0.4535 -0.0713  0.1492
 2335SOL    HW1 8528   1.345   3.702   4.375  1.6507 -0.7744  1.9253
 2335SOL    HW2 8529   1.277   3.813   4.453 -0.6812 -0.0381 -1.0862
 2335SOL     MW 8530   1.292   3.728   4.440 -0.2134 -0.1569  0.2184
 2336SOL     OW 8531   3.739   4.105   4.545  0.0662 -0.1037  0.5348
 2336SOL    HW1 8532   3.802   4.137   4.610 -0.8011  0.7053  0.9874
 2336SOL    HW2 8533   3.777   4.023   4.514 -0.5471 -1.6512  3.6799
 2336SOL     MW 8534   3.752   4.099   4.549 -0.1235 -0.1979  0.9952
 2337SOL     OW 8535   3.611   3.661   4.905 -0.5587 -0.2642  0.6140
 2337SOL    HW1 8536   3.517   3.655   4.920 -0.7906 -3.1548 -1.4601
 2337SOL    HW2 8537   3.619   3.694   4.815  0.4348  1.0553  1.1743
 2337SOL     MW 8538   3.600   3.664   4.895 -0.4616 -0.4654  0.4201
 2338SOL     OW 8539   2.144   5.198   3.428  0.9152  0.0923  0.3769
 2338SOL    HW1 8540   2.122   5.139   3.500  0.7550  0.9624  1.0552
 2338SOL    HW2 8541   2.171   5.141   3.357  1.9223 -0.7464  1.4248
 2338SOL     MW 8542   2.144   5.183   3.428  1.0235  0.0958  0.5980
 2339SOL     OW 8543   2.282   4.742   1.524 -0.4372 -0.0874 -0.1423
 2339SOL    HW1 8544   2.210   4.714   1.467  0.6739 -1.1706 -1.0321
 2339SOL    HW2 8545   2.336   4.799   1.470 -0.4023  0.3994  0.4010
 2339SOL     MW 8546   2.280   4.746   1.510 -0.2904 -0.1640 -0.1866
 2340SOL     OW 8547   4.440   4.224   2.762  0.4832 -0.5200  0.2183
 2340SOL    HW1 8548   4.507   4.250   2.825 -0.4032 -0.1566  1.0446
 2340SOL    HW2 8549   4.451   4.284   2.689  1.0830 -0.4868  0.3347
 2340SOL     MW 8550   4.450   4.235   2.761  0.4463 -0.4687  0.3390
 2341SOL     OW 8551   3.612   1.920   0.540  0.3199  0.5432  0.0226
 2341SOL    HW1 8552   3.533   1.890   0.586  0.5152 -1.0801 -0.6772
 2341SOL    HW2 8553   3.663   1.964   0.608 -0.7706  0.8192  0.6892
 2341SOL     MW 8554   3.608   1.922   0.555  0.2053  0.3707  0.0183
 2342SOL     OW 8555   1.969   2.313   3.317 -0.3408 -0.2420  0.1786
 2342SOL    HW1 8556   2.045   2.261   3.290 -0.8544 -0.9121  0.0177
 2342SOL    HW2 8557   1.946   2.365   3.240 -0.5855 -0.6838 -0.0434
 2342SOL     MW 8558   1.976   2.313   3.304 -0.4379 -0.3841  0.1297
 2343SOL     OW 8559   1.788   2.369   3.849  0.1198 -0.6349  0.3986
 2343SOL    HW1 8560   1.852   2.298   3.861 -0.0067 -1.1498 -1.7215
 2343SOL    HW2 8561   1.704   2.323   3.842  0.2250 -0.4412 -2.6083
 2343SOL     MW 8562   1.786   2.354   3.850  0.1171 -0.6762 -0.2577
 2344SOL     OW 8563   0.785   1.840   1.769 -0.3361  0.3293  0.4314
 2344SOL    HW1 8564   0.822   1.907   1.826 -0.2464  0.5044  0.1723
 2344SOL    HW2 8565   0.751   1.889   1.694 -0.4869  0.1063  0.3550
 2344SOL     MW 8566   0.786   1.855   1.767 -0.3439  0.3231  0.3885
 2345SOL     OW 8567   5.706   1.858   5.715 -0.3667  0.9259  0.2945
 2345SOL    HW1 8568   5.731   1.927   5.654 -0.7615  0.3795 -0.4987
 2345SOL    HW2 8569   5.773   1.790   5.703 -1.1766  0.2567 -0.4846
 2345SOL     MW 8570   5.718   1.858   5.706 -0.5212  0.7702  0.0935
 2346SOL     OW 8571   3.505   1.474   4.990  0.1974  0.1055  0.6423
 2346SOL    HW1 8572   3.515   1.547   5.051 -1.8968  0.3936  0.6526
 2346SOL    HW2 8573   3.533   1.509   4.905 -0.6047  0.8622  0.6906
 2346SOL     MW 8574   3.510   1.488   4.987 -0.1731  0.2393  0.6499
 2347SOL     OW 8575   5.365   2.969   2.240  0.2258 -0.0276 -0.0675
 2347SOL    HW1 8576   5.452   2.983   2.278  0.4987 -1.1068 -0.2799
 2347SOL    HW2 8577   5.351   3.046   2.184  0.8474  0.3783  0.3242
 2347SOL     MW 8578   5.374   2.981   2.238  0.3409 -0.1135 -0.0446
 2348SOL     OW 8579   3.945   4.009   5.445 -0.5495 -0.1787  0.1553
 2348SOL    HW1 8580   3.900   4.046   5.521  1.1230 -1.5082  1.8439
 2348SOL    HW2 8581   4.016   3.956   5.482 -0.1038 -1.4022 -2.3167
 2348SOL     MW 8582   3.948   4.007   5.459 -0.2785 -0.5054  0.0553
 2349SOL     OW 8583   1.308   5.266   1.816 -0.2813  0.2675 -0.0068
 2349SOL    HW1 8584   1.299   5.268   1.911  0.1646  0.1890  0.0398
 2349SOL    HW2 8585   1.233   5.214   1.785 -1.0685  1.2546  0.2111
 2349SOL     MW 8586   1.297   5.259   1.824 -0.3250  0.3839  0.0271
 2350SOL     OW 8587   2.281   4.733   2.258  0.5899 -0.1317  0.2266
 2350SOL    HW1 8588   2.356   4.785   2.287 -0.0681  0.4257  0.9449
 2350SOL    HW2 8589   2.206   4.770   2.305 -0.3312  0.1063 -1.3861
 2350SOL     MW 8590   2.281   4.744   2.268  0.3877 -0.0300  0.1121
 2351SOL     OW 8591   0.504   0.821   2.595  0.1787  0.4705 -0.3859
 2351SOL    HW1 8592   0.496   0.740   2.546 -3.4160  0.0361  0.7611
 2351SOL    HW2 8593   0.461   0.887   2.540 -2.6468  0.2524  1.4541
 2351SOL     MW 8594   0.498   0.819   2.581 -0.6432  0.3870 -0.0036
 2352SOL     OW 8595   5.664   4.006   1.461 -0.2234  0.0897  0.2075
 2352SOL    HW1 8596   5.708   4.016   1.545 -0.2038 -0.0113  0.2087
 2352SOL    HW2 8597   5.596   3.941   1.477  1.3832 -1.7973 -0.4859
 2352SOL     MW 8598   5.661   3.999   1.474 -0.0157 -0.1647  0.1189
 2353SOL     OW 8599   0.944   3.003   5.353 -0.0405 -0.0356 -0.3146
 2353SOL    HW1 8600   0.955   2.986   5.446 -1.2080  0.8231 -0.0169
 2353SOL    HW2 8601   0.849   3.002   5.339  0.0305  1.9464 -1.0824
 2353SOL     MW 8602   0.933   3.001   5.363 -0.1807  0.3281 -0.3748
 2354SOL     OW 8603   1.305   1.205   2.067  0.4885  0.0002 -0.3987
 2354SOL    HW1 8604   1.299   1.235   1.977 -0.9476  2.8806  0.5783
 2354SOL    HW2 8605   1.294   1.284   2.119 -0.4903 -1.8445  2.3195
 2354SOL     MW 8606   1.303   1.219   2.062  0.1794  0.1327  0.0741
 2355SOL     OW 8607   5.481   3.285   5.188 -0.2179  0.1428  0.6681
 2355SOL    HW1 8608   5.557   3.283   5.246 -0.1687 -0.9606  0.5846
 2355SOL    HW2 8609   5.516   3.310   5.103 -0.2256  1.3596  1.0106
 2355SOL     MW 8610   5.495   3.288   5.185 -0.2122  0.1571  0.7014
 2356SOL     OW 8611   3.616   3.455   4.049 -0.0053  0.4193  0.1854
 2356SOL    HW1 8612   3.586   3.452   3.958 -0.2994  1.6517  0.2230
 2356SOL    HW2 8613   3.537   3.475   4.099  0.2769  0.3751  0.6432
 2356SOL     MW 8614   3.602   3.457   4.043 -0.0067  0.5713  0.2489
 2357SOL     OW 8615   3.501   0.733   3.143  0.0037  0.3142 -0.2515
 2357SOL    HW1 8616   3.430   0.789   3.173  0.0830  0.6718 -0.7263
 2357SOL    HW2 8617   3.495   0.735   3.048  0.2447 -0.1795 -0.2824
 2357SOL     MW 8618   3.491   0.740   3.135  0.0446  0.2967 -0.3164
 2358SOL     OW 8619   1.026   4.151   4.730  0.1118 -0.8198  0.0304
 2358SOL    HW1 8620   0.946   4.100   4.738 -0.9688  0.7179 -0.7247
 2358SOL    HW2 8621   1.072   4.111   4.657  1.4958 -3.5765  2.2896
 2358SOL     MW 8622   1.022   4.139   4.722  0.1508 -0.9761  0.2227
 2359SOL     OW 8623   3.142   2.130   2.374 -0.0375 -0.4465  0.1210
 2359SOL    HW1 8624   3.170   2.077   2.300  0.2790 -1.3183  0.8504
 2359SOL    HW2 8625   3.164   2.220   2.350 -1.0550 -0.5852 -1.3497
 2359SOL     MW 8626   3.148   2.135   2.362 -0.1271 -0.5760  0.0260
 2360SOL     OW 8627   3.348   3.850   1.761 -0.0513  0.7022 -0.4024
 2360SOL    HW1 8628   3.434   3.885   1.784 -0.9322  2.4442  0.4175
 2360SOL    HW2 8629   3.366   3.774   1.707  2.0488 -0.6707  2.1231
 2360SOL     MW 8630   3.361   3.845   1.757  0.1051  0.7493  0.0259
 2361SOL     OW 8631   1.514   2.589   1.345 -0.3873  0.2310  0.2340
 2361SOL    HW1 8632   1.571   2.651   1.392 -0.5419 -0.6625  1.6457
 2361SOL    HW2 8633   1.425   2.615   1.371 -0.4475 -0.6244  0.9089
 2361SOL     MW 8634   1.510   2.601   1.354 -0.4148  0.0074  0.5010
 2362SOL     OW 8635   4.093   1.285   3.084  0.1730 -0.4377  0.5112
 2362SOL    HW1 8636   4.108   1.349   3.015 -0.8277 -1.0074 -0.2588
 2362SOL    HW2 8637   3.998   1.284   3.095  0.1358 -2.1991  0.1149
 2362SOL     MW 8638   4.083   1.293   3.077  0.0401 -0.7360  0.3617
 2363SOL     OW 8639   4.286   2.052   1.536 -0.3783  0.0074  0.1852
 2363SOL    HW1 8640   4.263   1.971   1.491  1.7439 -0.2530 -0.4486
 2363SOL    HW2 8641   4.352   2.027   1.601  1.5096  1.4712 -1.1289
 2363SOL     MW 8642   4.291   2.039   1.539  0.1349  0.1614 -0.0641
 2364SOL     OW 8643   2.049   5.040   3.627  0.3213  0.5540  0.6171
 2364SOL    HW1 8644   1.970   4.992   3.651  0.2527  0.8435  0.9782
 2364SOL    HW2 8645   2.112   5.019   3.695  0.4243  0.6509  0.5520
 2364SOL     MW 8646   2.047   5.031   3.638  0.3257  0.6032  0.6549
 2365SOL     OW 8647   3.298   5.052   5.682  0.0859 -0.7111 -0.1784
 2365SOL    HW1 8648   3.275   4.976   5.629  0.3318 -1.2228  0.4478
 2365SOL    HW2 8649   3.214   5.092   5.704 -0.0802 -1.1679  0.0265
 2365SOL     MW 8650   3.284   5.048   5.678  0.0961 -0.8354 -0.0720
 2366SOL     OW 8651   5.461   2.159   5.743 -0.5176  0.2876  0.0739
 2366SOL    HW1 8652   5.513   2.222   5.692 -0.7101  0.5839  0.2463
 2366SOL    HW2 8653   5.394   2.212   5.785  0.5703  0.2847  1.8743
 2366SOL     MW 8654   5.459   2.174   5.742 -0.4029  0.3250  0.3262
 2367SOL     OW 8655   3.593   0.818   4.586  0.5800  0.2527  0.1915
 2367SOL    HW1 8656   3.620   0.886   4.525  1.4676 -0.2981 -0.0454
 2367SOL    HW2 8657   3.500   0.834   4.601  0.7739  1.4872  0.1082
 2367SOL     MW 8658   3.585   0.828   4.580  0.7184  0.3402  0.1502
 2368SOL     OW 8659   1.246   3.773   1.864 -0.0598 -0.1349  0.0307
 2368SOL    HW1 8660   1.311   3.838   1.890 -0.4477  0.0680  0.4933
 2368SOL    HW2 8661   1.211   3.739   1.947  0.3443 -1.1441 -0.1986
 2368SOL     MW 8662   1.250   3.777   1.878 -0.0577 -0.2382  0.0606
 2369SOL     OW 8663   5.783   4.446   0.240 -0.4428 -0.2807 -0.1215
 2369SOL    HW1 8664   5.833   4.367   0.220  1.4955  0.4204  1.7536
 2369SOL    HW2 8665   5.801   4.506   0.168 -1.1859 -1.1686 -1.0764
 2369SOL     MW 8666   5.791   4.444   0.229 -0.2894 -0.3047 -0.0037
 2370SOL     OW 8667   2.077   3.444   0.773  0.0755  0.5444 -0.0395
 2370SOL    HW1 8668   1.987   3.431   0.741  0.5826 -3.1966 -0.1602
 2370SOL    HW2 8669   2.114   3.508   0.712 -1.8652  0.5739 -1.2575
 2370SOL     MW 8670   2.070   3.451   0.761 -0.1078  0.0696 -0.2109
 2371SOL     OW 8671   4.088   5.694   1.460 -0.0250  0.4781  0.1577
 2371SOL    HW1 8672   3.995   5.671   1.467 -0.9634  2.9134 -2.6249
 2371SOL    HW2 8673   4.089   5.790   1.469  1.7815  0.8124 -2.8532
 2371SOL     MW 8674   4.076   5.704   1.462  0.0863  0.8326 -0.5839
 2372SOL     OW 8675   5.839   5.425   4.539 -0.4795 -0.3206  0.1381
 2372SOL    HW1 8676   5.753   5.409   4.578 -0.1791  0.1253  0.9885
 2372SOL    HW2 8677   5.902   5.393   4.605  0.0379  0.9146  0.2549
 2372SOL     MW 8678   5.836   5.418   4.553 -0.3753 -0.1049  0.2613
 2373SOL     OW 8679   3.076   0.858   1.213 -0.0064  0.2583  0.5141
 2373SOL    HW1 8680   3.013   0.856   1.140 -1.2208 -2.9939  1.5549
 2373SOL    HW2 8681   3.042   0.925   1.272 -0.9148  0.5217 -0.2939
 2373SOL     MW 8682   3.064   0.866   1.211 -0.2782 -0.1243  0.5440
 2374SOL     OW 8683   3.181   4.364   0.049 -0.0024  0.2971  0.5283
 2374SOL    HW1 8684   3.134   4.430  -0.002  2.9465  0.4034 -2.2211
 2374SOL    HW2 8685   3.112   4.307   0.083 -2.3698  2.8066  0.1154
 2374SOL     MW 8686   3.166   4.365   0.047  0.0718  0.6318  0.1235
 2375SOL     OW 8687   5.378   2.368   4.176  0.2092 -0.4149  0.2354
 2375SOL    HW1 8688   5.379   2.462   4.194  1.8917 -0.5353  0.8953
 2375SOL    HW2 8689   5.398   2.362   4.082  0.2564 -0.1161  0.2270
 2375SOL     MW 8690   5.381   2.379   4.166  0.4311 -0.3922  0.3185
 2376SOL     OW 8691   5.770   1.432   1.340 -0.4624 -0.1847  0.2669
 2376SOL    HW1 8692   5.816   1.455   1.259 -1.1437  0.3975  0.0381
 2376SOL    HW2 8693   5.682   1.469   1.329 -0.6935 -0.4784  1.0890
 2376SOL     MW 8694   5.765   1.440   1.328 -0.5794 -0.1478  0.3428
 2377SOL     OW 8695   3.883   3.176   4.510  0.5898  0.5166 -0.2410
 2377SOL    HW1 8696   3.877   3.110   4.579 -1.7739  0.1085 -0.7791
 2377SOL    HW2 8697   3.797   3.218   4.511  0.2189 -0.0785 -3.4976
 2377SOL     MW 8698   3.871   3.173   4.519  0.2396  0.3881 -0.7262
 2378SOL     OW 8699   3.662   1.665   4.029 -0.3025 -0.1252  0.5313
 2378SOL    HW1 8700   3.701   1.579   4.041  0.6992  0.3966  1.0605
 2378SOL    HW2 8701   3.727   1.726   4.064 -1.8135  0.7232  1.8861
 2378SOL     MW 8702   3.675   1.662   4.035 -0.3676  0.0503  0.7725
 2379SOL     OW 8703   2.651   3.114   1.152  0.2173  0.2980 -0.1056
 2379SOL    HW1 8704   2.556   3.111   1.165  0.5037 -1.4307  1.9437
 2379SOL    HW2 8705   2.669   3.205   1.130 -1.7133  1.0254  1.1683
 2379SOL     MW 8706   2.641   3.125   1.151  0.0069  0.1698  0.3198
 2380SOL     OW 8707   0.287   4.720   2.472  0.7100 -0.3113 -0.1671
 2380SOL    HW1 8708   0.277   4.803   2.425  0.4614 -1.2504 -1.8264
 2380SOL    HW2 8709   0.197   4.692   2.491  0.7552 -0.6051 -0.3684
 2380SOL     MW 8710   0.274   4.727   2.469  0.6839 -0.4687 -0.4053
 2381SOL     OW 8711   3.677   0.992   4.391  0.4624 -0.3542 -0.4449
 2381SOL    HW1 8712   3.742   1.012   4.324  0.6564  1.9043  0.3949
 2381SOL    HW2 8713   3.601   1.045   4.367 -0.1110 -0.9157  0.1159
 2381SOL     MW 8714   3.676   1.001   4.379  0.4137 -0.1370 -0.2656
 2382SOL     OW 8715   0.957   5.969   3.927  0.1239  0.3420 -0.0779
 2382SOL    HW1 8716   0.998   6.052   3.952 -0.8070  0.6622  0.4078
 2382SOL    HW2 8717   0.916   5.937   4.007 -0.2455 -0.1699 -0.4673
 2382SOL     MW 8718   0.957   5.976   3.941 -0.0426  0.3171 -0.0656
 2383SOL     OW 8719   0.094   0.398   2.918  0.8123  0.4986 -0.0397
 2383SOL    HW1 8720   0.110   0.363   3.005  1.3541 -2.2082 -1.1942
 2383SOL    HW2 8721   0.011   0.445   2.926 -0.6079 -2.1615  1.2850
 2383SOL     MW 8722   0.085   0.399   2.930  0.7005 -0.1884 -0.0179
 2384SOL     OW 8723   1.534   5.706   0.830 -0.4389 -0.2367  0.6538
 2384SOL    HW1 8724   1.461   5.768   0.819  0.4637  1.0900  1.8524
 2384SOL    HW2 8725   1.531   5.651   0.752 -2.2147  0.3278  0.2872
 2384SOL     MW 8726   1.524   5.707   0.819 -0.5506  0.0057  0.7603
 2385SOL     OW 8727   0.107   5.162   2.440 -0.9412  0.0825 -0.3343
 2385SOL    HW1 8728   0.106   5.144   2.534  2.0880 -2.5687 -0.6956
 2385SOL    HW2 8729   0.125   5.255   2.434 -3.6009  0.7737  1.6935
 2385SOL     MW 8730   0.109   5.171   2.451 -0.8939 -0.1688 -0.1209
 2386SOL     OW 8731   3.808   1.346   5.039  0.1813  0.2494 -0.1668
 2386SOL    HW1 8732   3.771   1.274   4.988  0.4464 -0.9752  1.3605
 2386SOL    HW2 8733   3.902   1.330   5.038  0.1481 -0.0392  1.0968
 2386SOL     MW 8734   3.815   1.335   5.032  0.2110  0.0557  0.1903
 2387SOL     OW 8735   0.919   3.716   1.006  0.1939  0.3303 -0.1026
 2387SOL    HW1 8736   0.937   3.662   1.083  1.7435  0.2820 -0.4890
 2387SOL    HW2 8737   0.889   3.654   0.940 -2.9151  0.5857  0.9811
 2387SOL     MW 8738   0.918   3.701   1.008 -0.0057  0.3569 -0.0132
 2388SOL     OW 8739   3.515   5.982   0.148  0.1475  0.1479 -0.1540
 2388SOL    HW1 8740   3.490   5.941   0.230 -1.9562 -0.4274 -1.0467
 2388SOL    HW2 8741   3.573   6.054   0.173 -0.3049 -0.1579  1.8008
 2388SOL     MW 8742   3.519   5.986   0.161 -0.1795  0.0348 -0.0180
 2389SOL     OW 8743   5.822   5.458   5.519  0.1441 -0.1275  0.7410
 2389SOL    HW1 8744   5.807   5.538   5.570  0.4422 -0.0371  0.6864
 2389SOL    HW2 8745   5.745   5.449   5.464  0.4091  0.4754  0.2772
 2389SOL     MW 8746   5.810   5.467   5.519  0.2160 -0.0386  0.6752
 2390SOL     OW 8747   4.444   4.439   3.388  0.0359 -0.2209 -0.0799
 2390SOL    HW1 8748   4.358   4.460   3.426 -1.3668 -1.3113 -2.4875
 2390SOL    HW2 8749   4.472   4.520   3.345  0.5768  0.3610  1.3690
 2390SOL     MW 8750   4.436   4.452   3.387 -0.0744 -0.2861 -0.2027
 2391SOL     OW 8751   3.181   3.633   1.227  0.0130  0.4003  0.3743
 2391SOL    HW1 8752   3.206   3.545   1.258  0.8239  0.7180  0.6348
 2391SOL    HW2 8753   3.089   3.642   1.254 -0.4362 -0.8340 -0.7160
 2391SOL     MW 8754   3.172   3.623   1.235  0.0594  0.2828  0.2681
 2392SOL     OW 8755   2.372   0.835   2.587  0.5534 -0.2739 -0.5654
 2392SOL    HW1 8756   2.301   0.898   2.578  0.1837 -0.7284 -0.8309
 2392SOL    HW2 8757   2.417   0.837   2.502  1.8664  1.2188  0.1411
 2392SOL     MW 8758   2.369   0.843   2.575  0.6740 -0.1410 -0.5090
 2393SOL     OW 8759   4.080   4.444   5.192 -0.7020  0.3664  0.5076
 2393SOL    HW1 8760   4.103   4.425   5.101  0.2256 -0.6307  0.9460
 2393SOL    HW2 8761   4.040   4.532   5.188 -0.8441  0.2554 -0.8746
 2393SOL     MW 8762   4.078   4.453   5.180 -0.6018  0.2246  0.3867
 2394SOL     OW 8763   4.806   4.543   4.972 -0.4608 -0.5997 -0.1516
 2394SOL    HW1 8764   4.814   4.570   4.880 -1.0295 -0.5862 -0.1974
 2394SOL    HW2 8765   4.870   4.597   5.019  0.7910 -1.5397 -0.7353
 2394SOL     MW 8766   4.815   4.553   4.966 -0.3724 -0.7186 -0.2327
 2395SOL     OW 8767   5.237   4.611   4.459  0.1233 -0.2326 -0.3748
 2395SOL    HW1 8768   5.156   4.581   4.417 -0.7250 -0.8393  1.6229
 2395SOL    HW2 8769   5.258   4.693   4.414 -2.2652  0.5529 -0.1685
 2395SOL     MW 8770   5.229   4.618   4.448 -0.2913 -0.2098 -0.0930
 2396SOL     OW 8771   1.597   5.987   2.735 -0.9550  0.1430 -0.2642
 2396SOL    HW1 8772   1.640   6.051   2.678  1.1263 -1.0725 -0.1067
 2396SOL    HW2 8773   1.606   5.904   2.688 -0.3379 -0.6514  1.2355
 2396SOL     MW 8774   1.603   5.984   2.722 -0.6095 -0.1143 -0.0522
 2397SOL     OW 8775   4.425   5.091   3.231 -0.8865 -0.3898  0.5656
 2397SOL    HW1 8776   4.389   5.064   3.315  1.0208 -0.4169  1.4023
 2397SOL    HW2 8777   4.454   5.010   3.189  3.1295  0.0482  2.2734
 2397SOL     MW 8778   4.424   5.077   3.236 -0.1283 -0.3371  0.8912
 2398SOL     OW 8779   5.715   4.127   0.567  0.3967  0.3127 -0.0376
 2398SOL    HW1 8780   5.674   4.183   0.500 -0.4046  0.1306  0.2896
 2398SOL    HW2 8781   5.664   4.145   0.646  0.9782  0.0970  0.3830
 2398SOL     MW 8782   5.703   4.137   0.568  0.3686  0.2623  0.0581
 2399SOL     OW 8783   2.025   4.411   0.519 -0.3076  0.2199 -0.5687
 2399SOL    HW1 8784   2.040   4.340   0.582  0.0474  0.9705  0.2077
 2399SOL    HW2 8785   2.042   4.371   0.434  0.9244 -0.3534 -0.0734
 2399SOL     MW 8786   2.029   4.397   0.516 -0.1042  0.2427 -0.4059
 2400SOL     OW 8787   0.152   4.966   1.921  0.0084  0.1040  0.3651
 2400SOL    HW1 8788   0.151   5.035   1.987 -0.4069  1.1620 -0.7238
 2400SOL    HW2 8789   0.072   4.979   1.871 -0.1420 -1.2656  0.2339
 2400SOL     MW 8790   0.142   4.977   1.923 -0.0640  0.0644  0.2090
 2401SOL     OW 8791   5.609   5.928   2.677 -0.0428 -0.1526  0.0961
 2401SOL    HW1 8792   5.607   5.890   2.765 -0.3663 -1.1133 -0.3231
 2401SOL    HW2 8793   5.652   5.862   2.623  0.3208  0.5111 -0.4359
 2401SOL     MW 8794   5.614   5.915   2.682 -0.0377 -0.1907 -0.0257
 2402SOL     OW 8795   3.105   2.722   2.117  0.3167 -0.4708  0.0594
 2402SOL    HW1 8796   3.058   2.667   2.180 -1.5904 -0.0238 -0.9308
 2402SOL    HW2 8797   3.056   2.710   2.035  2.4049 -0.5948 -1.2064
 2402SOL     MW 8798   3.092   2.713   2.115  0.3400 -0.4296 -0.2294
 2403SOL     OW 8799   2.562   1.286   1.623  0.1644 -0.1194  0.2038
 2403SOL    HW1 8800   2.533   1.278   1.714 -0.8995  0.7097 -0.0605
 2403SOL    HW2 8801   2.657   1.299   1.629  0.1911 -0.7289  1.1613
 2403SOL     MW 8802   2.571   1.286   1.635  0.0317 -0.0912  0.2927
 2404SOL     OW 8803   1.303   4.692   5.569  0.3766 -0.1218  0.1001
 2404SOL    HW1 8804   1.306   4.773   5.619  1.4845  1.0587 -1.8160
 2404SOL    HW2 8805   1.321   4.624   5.633  3.0146  1.4688  1.1399
 2404SOL     MW 8806   1.306   4.693   5.583  0.8560  0.2332 -0.0124
 2405SOL     OW 8807   4.990   2.757   0.094  0.1257 -0.0911  0.2258
 2405SOL    HW1 8808   5.067   2.703   0.074  0.2480 -0.3625  1.4168
 2405SOL    HW2 8809   4.988   2.823   0.024 -0.2266 -1.8382 -1.4371
 2405SOL     MW 8810   5.000   2.759   0.082  0.0963 -0.3498  0.1654
 2406SOL     OW 8811   4.315   5.299   1.980  0.0576  0.2464 -0.2121
 2406SOL    HW1 8812   4.303   5.217   1.931  1.3021 -0.1769  0.1665
 2406SOL    HW2 8813   4.403   5.328   1.957  0.5207  0.2350  1.4774
 2406SOL     MW 8814   4.325   5.292   1.971  0.2766  0.1907  0.0527
 2407SOL     OW 8815   5.110   4.973   0.562  0.0096 -0.7214  0.8832
 2407SOL    HW1 8816   5.168   5.029   0.613  0.3098 -0.1877 -0.0312
 2407SOL    HW2 8817   5.026   4.977   0.607 -0.8090  2.8472 -0.7720
 2407SOL     MW 8818   5.107   4.980   0.574 -0.0567 -0.1965  0.5543
 2408SOL     OW 8819   4.513   3.818   3.142  0.5831 -0.4387 -0.5112
 2408SOL    HW1 8820   4.503   3.824   3.238  2.2041 -0.7774 -0.3162
 2408SOL    HW2 8821   4.423   3.814   3.110  0.0279 -1.0718  1.0451
 2408SOL     MW 8822   4.500   3.818   3.150  0.7200 -0.5629 -0.2871
 2409SOL     OW 8823   2.046   5.990   5.658 -0.1368 -0.3170  0.0069
 2409SOL    HW1 8824   2.117   6.050   5.680  0.0231 -0.5332  0.0811
 2409SOL    HW2 8825   1.982   6.045   5.613  0.2203 -0.1855 -0.3444
 2409SOL     MW 8826   2.047   6.005   5.655 -0.0706 -0.3278 -0.0286
 2410SOL     OW 8827   2.090   4.417   4.566  0.4224 -0.0430  0.3888
 2410SOL    HW1 8828   2.111   4.426   4.659 -0.5055 -1.7450  0.7649
 2410SOL    HW2 8829   1.996   4.436   4.561  0.0902 -1.7771  0.0625
 2410SOL     MW 8830   2.081   4.421   4.577  0.2613 -0.4830  0.3953
 2411SOL     OW 8831   4.646   2.283   1.276  0.0708 -0.0154  0.3584
 2411SOL    HW1 8832   4.681   2.201   1.310  1.0527 -0.5785 -1.9513
 2411SOL    HW2 8833   4.552   2.276   1.288  0.0096 -2.1066 -1.0891
 2411SOL     MW 8834   4.639   2.272   1.282  0.1884 -0.3550 -0.1224
 2412SOL     OW 8835   4.325   5.770   4.727  0.3183 -0.4597 -0.2013
 2412SOL    HW1 8836   4.348   5.677   4.734 -0.7200 -0.5920  1.7659
 2412SOL    HW2 8837   4.240   5.770   4.683  0.1823 -0.4669  0.0593
 2412SOL     MW 8838   4.317   5.758   4.722  0.1678 -0.4773  0.0839
 2413SOL     OW 8839   1.893   4.886   5.559 -0.4283 -0.1405  0.2545
 2413SOL    HW1 8840   1.819   4.908   5.502  0.8656  1.0593 -0.9648
 2413SOL    HW2 8841   1.903   4.791   5.549 -0.9368 -0.1050 -0.6262
 2413SOL     MW 8842   1.885   4.876   5.551 -0.3278  0.0176 -0.0148
 2414SOL     OW 8843   5.540   2.707   2.866  0.3736  0.1083 -0.1704
 2414SOL    HW1 8844   5.563   2.626   2.820  0.1641  0.7148 -1.3734
 2414SOL    HW2 8845   5.589   2.775   2.820 -0.2917  0.8050  0.1466
 2414SOL     MW 8846   5.549   2.705   2.854  0.2613  0.2754 -0.2840
 2415SOL     OW 8847   1.862   0.544   5.199 -0.2402 -0.2825  0.3920
 2415SOL    HW1 8848   1.786   0.552   5.256 -0.1903 -1.4805  0.6497
 2415SOL    HW2 8849   1.937   0.568   5.253  0.0720 -3.6723  1.5737
 2415SOL     MW 8850   1.862   0.548   5.213 -0.1938 -0.8698  0.5760
 2416SOL     OW 8851   3.879   3.182   0.638  0.1753  0.8969 -0.0255
 2416SOL    HW1 8852   3.815   3.191   0.708 -0.6266  0.2137 -0.6479
 2416SOL    HW2 8853   3.827   3.154   0.562  1.2766 -0.0711 -0.4321
 2416SOL     MW 8854   3.864   3.180   0.637  0.2134  0.6857 -0.1573
 2417SOL     OW 8855   2.957   4.509   2.395 -0.3178  0.0993 -0.4239
 2417SOL    HW1 8856   2.922   4.504   2.306  0.5197 -1.2782 -0.6934
 2417SOL    HW2 8857   2.965   4.602   2.412 -3.0620  0.4562 -0.7571
 2417SOL     MW 8858   2.953   4.520   2.386 -0.5620 -0.0315 -0.5012
 2418SOL     OW 8859   1.710   5.277   0.432 -0.1003  0.4970  0.2657
 2418SOL    HW1 8860   1.619   5.248   0.429  0.1827 -0.3618 -0.1416
 2418SOL    HW2 8861   1.705   5.366   0.465 -0.9838 -0.0085  1.5400
 2418SOL     MW 8862   1.698   5.285   0.436 -0.1773  0.3223  0.3766
 2419SOL     OW 8863   4.043   4.405   0.855  0.3053  0.6675  0.0005
 2419SOL    HW1 8864   4.047   4.458   0.775  1.2016  1.1350  0.3500
 2419SOL    HW2 8865   3.950   4.403   0.877  0.3339  2.8169  0.4557
 2419SOL     MW 8866   4.031   4.412   0.847  0.4230  1.0028  0.1035
 2420SOL     OW 8867   0.106   0.247   4.848 -0.0498 -0.2499 -0.1604
 2420SOL    HW1 8868   0.105   0.232   4.754  0.1069 -0.8643 -0.0599
 2420SOL    HW2 8869   0.059   0.173   4.885  2.0899 -1.3360  0.4513
 2420SOL     MW 8870   0.100   0.236   4.841  0.2442 -0.4676 -0.0691
 2421SOL     OW 8871   4.591   5.981   5.749 -0.2550  0.2533  0.1173
 2421SOL    HW1 8872   4.506   5.958   5.711 -1.5710  2.4901  1.5669
 2421SOL    HW2 8873   4.583   5.961   5.842  1.2178 -0.5697  0.0867
 2421SOL     MW 8874   4.579   5.976   5.756 -0.2346  0.4344  0.2990
 2422SOL     OW 8875   0.300   3.658   2.181 -0.0814  0.6615  0.3685
 2422SOL    HW1 8876   0.318   3.682   2.271  2.0030 -0.2399  0.2012
 2422SOL    HW2 8877   0.366   3.594   2.158 -1.2992 -0.0157 -1.4402
 2422SOL     MW 8878   0.310   3.653   2.189  0.0295  0.4594  0.1156
 2423SOL     OW 8879   2.297   1.315   1.485 -0.0488  0.0419 -0.0556
 2423SOL    HW1 8880   2.383   1.301   1.526  0.1860 -0.0237 -0.5715
 2423SOL    HW2 8881   2.235   1.297   1.556  0.4028  1.7821  0.8043
 2423SOL     MW 8882   2.300   1.311   1.499  0.0389  0.2563 -0.0116
 2424SOL     OW 8883   0.172   4.428   5.281 -0.1271 -0.4350  0.2145
 2424SOL    HW1 8884   0.143   4.449   5.192  0.1320 -0.9293  0.0082
 2424SOL    HW2 8885   0.115   4.479   5.338 -0.2480 -0.0606 -0.2414
 2424SOL     MW 8886   0.161   4.437   5.277 -0.1094 -0.4497  0.1297
 2425SOL     OW 8887   2.083   3.689   5.112 -0.2588 -0.6346 -0.2401
 2425SOL    HW1 8888   2.031   3.739   5.175  3.4414  1.6824  1.0761
 2425SOL    HW2 8889   2.046   3.712   5.026 -1.1319  1.2606  0.6236
 2425SOL     MW 8890   2.072   3.698   5.109  0.1032 -0.0951  0.0391
 2426SOL     OW 8891   0.192   3.357   0.205  0.1917 -0.0095 -0.6363
 2426SOL    HW1 8892   0.219   3.323   0.120 -0.1715  0.8207 -1.0787
 2426SOL    HW2 8893   0.100   3.335   0.213  0.1494  0.1813 -0.5859
 2426SOL     MW 8894   0.184   3.350   0.195  0.1398  0.1214 -0.6865
 2427SOL     OW 8895   2.344   1.727   4.949  0.0502 -0.2081  0.5755
 2427SOL    HW1 8896   2.296   1.809   4.940 -1.2405 -1.0878 -0.7177
 2427SOL    HW2 8897   2.312   1.689   5.031 -1.1718 -0.5954 -0.0711
 2427SOL     MW 8898   2.334   1.733   4.958 -0.2713 -0.3703  0.3266
 2428SOL     OW 8899   2.929   2.420   1.388 -0.1415 -0.3311 -0.3612
 2428SOL    HW1 8900   2.864   2.420   1.317 -0.7211 -0.0463  0.1649
 2428SOL    HW2 8901   3.012   2.399   1.344  0.2682  3.8641 -1.7859
 2428SOL     MW 8902   2.931   2.417   1.373 -0.1633  0.2425 -0.4761
 2429SOL     OW 8903   0.647   4.175   4.128 -0.2166  0.0863 -0.2042
 2429SOL    HW1 8904   0.583   4.106   4.143  0.8934 -0.8194  0.4885
 2429SOL    HW2 8905   0.599   4.256   4.142 -0.5751 -0.6169  3.0557
 2429SOL     MW 8906   0.633   4.176   4.132 -0.1204 -0.1192  0.3018
 2430SOL     OW 8907   4.583   5.897   3.788  0.1202  0.3270 -0.5593
 2430SOL    HW1 8908   4.665   5.946   3.789  0.9930 -1.0987  0.4252
 2430SOL    HW2 8909   4.600   5.820   3.843 -1.8185 -0.0848 -0.4826
 2430SOL     MW 8910   4.595   5.893   3.795 -0.0162  0.0920 -0.4234
 2431SOL     OW 8911   0.873   0.080   3.232  0.1008 -0.2350  0.0362
 2431SOL    HW1 8912   0.935   0.130   3.285  0.3366  0.5776 -0.9751
 2431SOL    HW2 8913   0.787   0.110   3.262  0.1970 -0.8767  0.9801
 2431SOL     MW 8914   0.870   0.090   3.243  0.1433 -0.2131  0.0272
 2432SOL     OW 8915   0.777   1.522   4.120  0.0831  0.1912  0.0892
 2432SOL    HW1 8916   0.774   1.581   4.044  0.4808 -0.3026 -0.3118
 2432SOL    HW2 8917   0.869   1.523   4.147  0.3382 -1.2114 -0.6832
 2432SOL     MW 8918   0.788   1.530   4.113  0.1667 -0.0515 -0.0606
 2433SOL     OW 8919   0.717   1.513   3.323  0.2669 -0.5501 -0.3351
 2433SOL    HW1 8920   0.752   1.474   3.243  0.3961 -0.9335 -0.0954
 2433SOL    HW2 8921   0.636   1.465   3.340 -0.1944  0.1048 -0.7013
 2433SOL     MW 8922   0.711   1.502   3.315  0.2243 -0.5153 -0.3514
 2434SOL     OW 8923   1.069   3.958   1.739  0.4458  0.5901  0.0984
 2434SOL    HW1 8924   1.090   4.043   1.776  1.4668  1.3115 -2.1086
 2434SOL    HW2 8925   1.132   3.898   1.779 -0.1671  0.8763  1.5240
 2434SOL     MW 8926   1.079   3.961   1.749  0.4978  0.7191 -0.0017
 2435SOL     OW 8927   1.154   3.818   0.801 -0.3463  0.2148 -0.7160
 2435SOL    HW1 8928   1.198   3.829   0.717 -0.5653  2.0712 -0.6070
 2435SOL    HW2 8929   1.114   3.731   0.795  2.3448 -1.0397 -1.2431
 2435SOL     MW 8930   1.154   3.808   0.789 -0.0298  0.2918 -0.7696
 2436SOL     OW 8931   1.318   2.469   2.851 -0.2094  0.0039 -0.6544
 2436SOL    HW1 8932   1.282   2.454   2.939  1.1084  1.6643  0.1856
 2436SOL    HW2 8933   1.243   2.464   2.793 -1.2487 -0.1135  0.6853
 2436SOL     MW 8934   1.304   2.466   2.855 -0.1738  0.2017 -0.3753
 2437SOL     OW 8935   0.028   1.834   1.405 -0.0898 -0.1004  0.3069
 2437SOL    HW1 8936   0.023   1.807   1.497 -1.1130  0.4144  0.4127
 2437SOL    HW2 8937   0.014   1.754   1.355  1.7966 -0.6247  0.5764
 2437SOL     MW 8938   0.025   1.820   1.410  0.0207 -0.1016  0.3550
 2438SOL     OW 8939   2.802   2.298   3.641 -0.5274  0.3094  0.3301
 2438SOL    HW1 8940   2.777   2.370   3.583  1.3988  0.0035 -0.9289
 2438SOL    HW2 8941   2.826   2.227   3.582 -0.1360 -0.5675  1.5347
 2438SOL     MW 8942   2.802   2.298   3.626 -0.2308  0.1581  0.3231
 2439SOL     OW 8943   5.450   1.949   1.216  0.2950  0.5007 -0.1064
 2439SOL    HW1 8944   5.402   1.935   1.297 -1.1250 -0.2844 -1.0527
 2439SOL    HW2 8945   5.499   2.030   1.230  1.0055 -0.2529  1.9553
 2439SOL     MW 8946   5.450   1.957   1.228  0.2046  0.3039  0.0364
 2440SOL     OW 8947   1.062   0.391   1.663  0.1492 -0.9136 -0.0812
 2440SOL    HW1 8948   1.146   0.378   1.619 -1.2071 -1.1406 -2.6677
 2440SOL    HW2 8949   1.053   0.315   1.721  2.2219 -0.3246  1.0421
 2440SOL     MW 8950   1.071   0.380   1.665  0.2408 -0.8673 -0.2685
 2441SOL     OW 8951   4.483   2.273   4.923 -0.3175  0.1490 -0.3725
 2441SOL    HW1 8952   4.572   2.240   4.907 -0.3201 -0.1846  0.2845
 2441SOL    HW2 8953   4.426   2.212   4.878 -0.3700 -1.2201  1.4731
 2441SOL     MW 8954   4.487   2.261   4.916 -0.3247 -0.0691 -0.0520
 2442SOL     OW 8955   3.887   3.929   1.824 -0.2032  0.5692 -0.0362
 2442SOL    HW1 8956   3.851   4.000   1.771  1.4108  1.0451 -0.5295
 2442SOL    HW2 8957   3.980   3.950   1.833 -0.3599  0.2737  2.6542
 2442SOL     MW 8958   3.895   3.940   1.818 -0.0165  0.5922  0.2451
 2443SOL     OW 8959   1.841   1.196   5.476 -0.3079  0.0053  0.3623
 2443SOL    HW1 8960   1.803   1.221   5.560  0.3850 -1.2593  1.0628
 2443SOL    HW2 8961   1.843   1.278   5.426 -2.8687  0.3335  0.7024
 2443SOL     MW 8962   1.836   1.210   5.481 -0.5469 -0.1147  0.4959
 2444SOL     OW 8963   3.431   2.819   4.043 -0.0626  0.1579  0.2805
 2444SOL    HW1 8964   3.434   2.729   4.012  0.5453  0.3735 -0.2841
 2444SOL    HW2 8965   3.522   2.843   4.057  0.0533  1.9541 -3.2327
 2444SOL     MW 8966   3.443   2.811   4.041  0.0300  0.4153 -0.2418
 2445SOL     OW 8967   5.688   5.672   4.116 -0.2608  0.1530 -0.3638
 2445SOL    HW1 8968   5.751   5.637   4.052 -1.2051  0.1201 -1.2845
 2445SOL    HW2 8969   5.689   5.766   4.099 -1.0921  0.0557 -0.9561
 2445SOL     MW 8970   5.696   5.680   4.105 -0.4878  0.1369 -0.5574
 2446SOL     OW 8971   3.631   3.917   2.423  0.1721 -0.3754 -0.1382
 2446SOL    HW1 8972   3.553   3.973   2.420  0.4339  0.1717  2.1460
 2446SOL    HW2 8973   3.690   3.961   2.484 -0.0258 -3.5764  2.4976
 2446SOL     MW 8974   3.628   3.930   2.431  0.1802 -0.7153  0.4916
 2447SOL     OW 8975   4.403   4.165   3.588  0.0028 -0.2199 -0.4222
 2447SOL    HW1 8976   4.450   4.171   3.671 -0.4685 -0.7763 -0.1163
 2447SOL    HW2 8977   4.411   4.253   3.550  2.4805 -0.6550 -1.0324
 2447SOL     MW 8978   4.410   4.177   3.594  0.2594 -0.3467 -0.4609
 2448SOL     OW 8979   0.090   1.202   1.014  0.6973  0.1693  0.2312
 2448SOL    HW1 8980   0.154   1.190   1.084  1.0638  0.0065 -0.1297
 2448SOL    HW2 8981   0.123   1.149   0.941  0.8134  1.0709 -0.3830
 2448SOL     MW 8982   0.103   1.194   1.014  0.7591  0.2639  0.1063
 2449SOL     OW 8983   3.130   2.074   4.221  0.0439  0.1033  0.1252
 2449SOL    HW1 8984   3.195   2.101   4.156 -0.3451  0.4198 -0.1421
 2449SOL    HW2 8985   3.047   2.106   4.186 -0.5600 -2.1638 -0.6031
 2449SOL     MW 8986   3.127   2.082   4.208 -0.0834 -0.1464 -0.0029
 2450SOL     OW 8987   3.455   5.818   0.388 -0.1726 -0.1038 -0.0073
 2450SOL    HW1 8988   3.419   5.779   0.468  1.0166 -1.0911  0.0524
 2450SOL    HW2 8989   3.484   5.743   0.336  1.4279  0.6696 -0.2256
 2450SOL     MW 8990   3.454   5.803   0.391  0.1845 -0.1316 -0.0276
 2451SOL     OW 8991   1.847   0.892   3.149  0.0029 -0.8912 -0.1893
 2451SOL    HW1 8992   1.927   0.888   3.097  0.0382  1.4488 -0.3809
 2451SOL    HW2 8993   1.776   0.888   3.086 -0.0127 -1.5198 -0.1339
 2451SOL     MW 8994   1.848   0.891   3.135  0.0054 -0.6721 -0.2069
 2452SOL     OW 8995   1.899   5.618   4.459  0.2447  0.0904  0.0231
 2452SOL    HW1 8996   1.898   5.542   4.516  0.7454 -0.8155 -1.1547
 2452SOL    HW2 8997   1.902   5.693   4.519  0.3535 -0.8234  1.1807
 2452SOL     MW 8998   1.899   5.618   4.474  0.3227 -0.1426  0.0205
 2453SOL     OW 8999   4.065   2.786   5.486  0.1572  0.2858 -0.2999
 2453SOL    HW1 9000   4.019   2.859   5.528 -0.9584  0.6356 -2.0778
 2453SOL    HW2 9001   4.122   2.752   5.554 -0.7051  1.6165  1.1338
 2453SOL     MW 9002   4.066   2.791   5.500 -0.0958  0.5009 -0.3443
 2454SOL     OW 9003   1.289   3.562   2.884 -0.3898  0.2094 -0.6165
 2454SOL    HW1 9004   1.324   3.545   2.796  0.1658  2.1756 -0.8042
 2454SOL    HW2 9005   1.259   3.477   2.915 -2.5392 -0.1809 -3.5763
 2454SOL     MW 9006   1.290   3.549   2.877 -0.5937  0.4113 -1.0192
 2455SOL     OW 9007   1.321   1.433   5.276  0.0328 -0.5942 -0.4771
 2455SOL    HW1 9008   1.302   1.457   5.185  0.0411 -1.4257 -0.7017
 2455SOL    HW2 9009   1.235   1.432   5.319  0.1796  1.3046 -0.0920
 2455SOL     MW 9010   1.307   1.436   5.270  0.0526 -0.4575 -0.4563
 2456SOL     OW 9011   2.520   3.088   3.060 -0.1214  0.4188  0.3929
 2456SOL    HW1 9012   2.440   3.045   3.090 -0.1763 -0.9112 -1.5541
 2456SOL    HW2 9013   2.586   3.065   3.125 -0.8068 -0.3358  0.8271
 2456SOL     MW 9014   2.518   3.080   3.072 -0.2162  0.1521  0.1993
 2457SOL     OW 9015   3.816   4.525   3.528  0.0307  0.3888  0.0779
 2457SOL    HW1 9016   3.853   4.602   3.572 -0.2953 -0.0013  1.0295
 2457SOL    HW2 9017   3.752   4.562   3.467 -1.6918  0.7810  2.0549
 2457SOL     MW 9018   3.813   4.540   3.526 -0.2313  0.3896  0.4528
 2458SOL     OW 9019   5.515   5.648   5.273  0.1781  0.2446  0.5108
 2458SOL    HW1 9020   5.568   5.572   5.249 -0.7039 -0.3576  0.4387
 2458SOL    HW2 9021   5.479   5.679   5.190 -1.4287 -0.7494  0.8219
 2458SOL     MW 9022   5.517   5.642   5.259 -0.1407  0.0405  0.5417
 2459SOL     OW 9023   5.720   2.917   2.755  0.6721 -0.0268 -0.3910
 2459SOL    HW1 9024   5.774   2.930   2.676  0.6866 -2.0527 -0.7532
 2459SOL    HW2 9025   5.668   2.996   2.762  0.3626  0.0104 -2.7119
 2459SOL     MW 9026   5.721   2.929   2.745  0.6342 -0.2816 -0.7346
 2460SOL     OW 9027   3.801   0.658   0.805 -0.2546  0.4100  0.5195
 2460SOL    HW1 9028   3.880   0.642   0.858  1.9144  0.7032 -2.4799
 2460SOL    HW2 9029   3.790   0.753   0.808  1.5751  0.7472 -1.7779
 2460SOL     MW 9030   3.810   0.668   0.813  0.2573  0.4907 -0.1585
 2461SOL     OW 9031   0.010   1.751   2.448  0.2671 -0.8881  0.2936
 2461SOL    HW1 9032  -0.008   1.788   2.535  0.9943 -0.1716  0.1383
 2461SOL    HW2 9033   0.073   1.681   2.464  0.2187 -0.9123  0.3758
 2461SOL     MW 9034   0.016   1.747   2.461  0.3540 -0.7995  0.2840
 2462SOL     OW 9035   1.691   3.056   0.859 -0.3753 -0.0664 -0.2386
 2462SOL    HW1 9036   1.673   2.975   0.907 -0.2897  0.2151  0.2788
 2462SOL    HW2 9037   1.739   3.110   0.922 -0.7601  0.5332 -0.4604
 2462SOL     MW 9038   1.695   3.052   0.873 -0.4135  0.0465 -0.2008
 2463SOL     OW 9039   2.259   5.354   2.281 -0.0703 -0.1621  0.9354
 2463SOL    HW1 9040   2.295   5.322   2.199 -0.5717  1.2614  0.1392
 2463SOL    HW2 9041   2.164   5.360   2.266 -0.0125  1.4926  1.1099
 2463SOL     MW 9042   2.251   5.351   2.269 -0.1271  0.2317  0.8559
 2464SOL     OW 9043   1.082   3.706   2.095 -0.0003 -0.0142 -0.3366
 2464SOL    HW1 9044   1.095   3.669   2.182 -2.8946  1.3374  0.7343
 2464SOL    HW2 9045   1.052   3.795   2.110  0.0463  0.4571 -2.7415
 2464SOL     MW 9046   1.080   3.713   2.108 -0.3648  0.2191 -0.5074
 2465SOL     OW 9047   4.835   1.644   3.738  0.0205 -0.4185  0.4680
 2465SOL    HW1 9048   4.894   1.714   3.710 -1.1115  0.9322  1.3532
 2465SOL    HW2 9049   4.826   1.587   3.662  1.9496 -0.2881  0.1270
 2465SOL     MW 9050   4.841   1.646   3.725  0.1225 -0.2290  0.5376
 2466SOL     OW 9051   0.481   5.204   1.379 -0.7341  0.6928  0.0715
 2466SOL    HW1 9052   0.509   5.295   1.388 -1.4391  1.1268 -2.0161
 2466SOL    HW2 9053   0.560   5.156   1.357 -0.3691  0.7991  1.1317
 2466SOL     MW 9054   0.494   5.209   1.378 -0.7776  0.7620 -0.0601
 2467SOL     OW 9055   5.999   5.935   1.474  0.1230  0.3615  0.0744
 2467SOL    HW1 9056   5.907   5.917   1.454 -0.0645  2.2196 -0.9463
 2467SOL    HW2 9057   6.048   5.886   1.408 -0.0553 -1.8543  1.5624
 2467SOL     MW 9058   5.994   5.927   1.463  0.0758  0.3161  0.1342
 2468SOL     OW 9059   4.852   1.815   5.297 -0.1038 -0.5567  0.3811
 2468SOL    HW1 9060   4.795   1.744   5.267 -0.3916  0.0041 -0.4045
 2468SOL    HW2 9061   4.830   1.825   5.390  0.6098 -2.1212  0.7465
 2468SOL     MW 9062   4.842   1.807   5.305 -0.0496 -0.6851  0.3271
 2469SOL     OW 9063   2.705   0.201   4.214 -0.4784  0.0174  0.2471
 2469SOL    HW1 9064   2.779   0.186   4.273  0.0832  0.6609 -0.2907
 2469SOL    HW2 9065   2.634   0.230   4.272  0.1230  0.8164  0.6002
 2469SOL     MW 9066   2.705   0.203   4.229 -0.3300  0.2021  0.2232
 2470SOL     OW 9067   2.301   2.972   3.129  0.1202 -0.5862  0.0501
 2470SOL    HW1 9068   2.342   2.899   3.175 -0.5254  0.4080  2.3048
 2470SOL    HW2 9069   2.207   2.953   3.133  0.0704 -0.6334 -1.1562
 2470SOL     MW 9070   2.295   2.960   3.136  0.0310 -0.4652  0.1843
 2471SOL     OW 9071   0.933   3.864   4.861 -0.3918  0.1112  0.0650
 2471SOL    HW1 9072   0.879   3.807   4.915 -1.3088  2.2559  1.5084
 2471SOL    HW2 9073   0.872   3.927   4.823  0.5369 -0.0874 -1.8372
 2471SOL     MW 9074   0.918   3.865   4.863 -0.3903  0.3603  0.0062
 2472SOL     OW 9075   2.386   5.680   2.130 -0.3203 -0.1197  0.2898
 2472SOL    HW1 9076   2.372   5.609   2.066  2.0107 -0.7445  0.4436
 2472SOL    HW2 9077   2.406   5.757   2.077  0.4272 -0.3536  0.2379
 2472SOL     MW 9078   2.387   5.680   2.115  0.0739 -0.2298  0.3030
 2473SOL     OW 9079   4.969   5.118   5.236 -0.3154 -0.1883  0.3732
 2473SOL    HW1 9080   5.044   5.085   5.186  0.1411 -1.6352  1.9536
 2473SOL    HW2 9081   4.967   5.212   5.218  1.1072 -0.3495 -0.7081
 2473SOL     MW 9082   4.978   5.126   5.228 -0.0744 -0.3943  0.4368
 2474SOL     OW 9083   4.662   1.837   4.941 -0.2513  0.5591 -0.0175
 2474SOL    HW1 9084   4.653   1.924   4.980 -0.9227  0.2278  0.5764
 2474SOL    HW2 9085   4.579   1.794   4.959  0.6354 -0.7565  1.0553
 2474SOL     MW 9086   4.650   1.843   4.949 -0.2236  0.3482  0.1965
 2475SOL     OW 9087   5.002   4.554   0.419 -0.1500  0.1745 -1.0426
 2475SOL    HW1 9088   5.070   4.586   0.478  1.3848 -2.4363 -1.3350
 2475SOL    HW2 9089   5.044   4.484   0.369 -2.7522 -0.8287 -1.9283
 2475SOL     MW 9090   5.016   4.549   0.420 -0.2871 -0.2880 -1.1934
 2476SOL     OW 9091   1.698   2.927   2.569 -0.0027  0.1236  0.2586
 2476SOL    HW1 9092   1.684   2.941   2.475  2.7023 -0.6946 -0.3313
 2476SOL    HW2 9093   1.750   3.003   2.596 -2.8280  1.6178  1.6832
 2476SOL     MW 9094   1.703   2.938   2.560 -0.0181  0.2103  0.3655
 2477SOL     OW 9095   5.928   0.127   5.718  0.1765  0.1919 -0.2190
 2477SOL    HW1 9096   6.007   0.089   5.679  1.5494  0.1854  2.4266
 2477SOL    HW2 9097   5.953   0.216   5.742 -0.2352 -0.1737  1.6754
 2477SOL     MW 9098   5.941   0.134   5.716  0.2995  0.1443  0.3614
 2478SOL     OW 9099   2.412   4.639   2.743 -0.4679 -0.4478  0.0768
 2478SOL    HW1 9100   2.322   4.620   2.715  0.0835 -0.5192 -1.7156
 2478SOL    HW2 9101   2.422   4.591   2.826 -0.9653 -3.3383 -1.4679
 2478SOL     MW 9102   2.401   4.630   2.750 -0.4609 -0.8268 -0.3502
 2479SOL     OW 9103   5.404   1.159   3.699 -0.7959 -0.1511 -0.0006
 2479SOL    HW1 9104   5.355   1.229   3.655  0.3839  1.6015  1.4112
 2479SOL    HW2 9105   5.402   1.183   3.792  3.2647  0.3416  0.0283
 2479SOL     MW 9106   5.397   1.171   3.705 -0.1249  0.1364  0.1836
 2480SOL     OW 9107   4.332   3.847   0.666  0.5176 -0.1980  0.6965
 2480SOL    HW1 9108   4.376   3.856   0.581  2.1270  2.4570  1.7208
 2480SOL    HW2 9109   4.293   3.933   0.681 -1.2961 -1.1921  1.8595
 2480SOL     MW 9110   4.333   3.859   0.657  0.4916  0.0148  0.9765
 2481SOL     OW 9111   2.887   5.253   4.397 -0.2759  0.1892 -0.0018
 2481SOL    HW1 9112   2.977   5.227   4.418 -1.1536 -1.8409  1.4117
 2481SOL    HW2 9113   2.883   5.346   4.418  1.1723  0.0300  1.0450
 2481SOL     MW 9114   2.898   5.262   4.402 -0.2029 -0.0916  0.3128
 2482SOL     OW 9115   0.203   0.620   2.748  0.4752  0.5968  0.2975
 2482SOL    HW1 9116   0.241   0.538   2.715 -0.0297  0.2319  0.6182
 2482SOL    HW2 9117   0.210   0.613   2.843 -0.8976  0.2817  0.3824
 2482SOL     MW 9118   0.209   0.608   2.756  0.2348  0.5098  0.3493
 2483SOL     OW 9119   1.877   2.232   5.778 -0.2328 -0.1191 -0.3543
 2483SOL    HW1 9120   1.917   2.170   5.716  1.1179  1.6305 -1.2600
 2483SOL    HW2 9121   1.864   2.312   5.727  0.5703  1.2403  1.5321
 2483SOL     MW 9122   1.880   2.234   5.764  0.0430  0.2789 -0.2284
 2484SOL     OW 9123   4.370   3.389   5.712  0.0949 -0.3625 -0.1477
 2484SOL    HW1 9124   4.293   3.367   5.763 -1.6328  1.2111 -1.9655
 2484SOL    HW2 9125   4.376   3.320   5.646  0.1227 -0.3806 -0.1260
 2484SOL     MW 9126   4.361   3.377   5.710 -0.1221 -0.1633 -0.3777
 2485SOL     OW 9127   4.423   2.169   4.052 -0.0262  0.2823  0.4053
 2485SOL    HW1 9128   4.359   2.117   4.004  0.1891  0.5037 -0.1180
 2485SOL    HW2 9129   4.403   2.259   4.028 -0.3230  0.4457  1.2210
 2485SOL     MW 9130   4.412   2.174   4.043 -0.0372  0.3316  0.4430
 2486SOL     OW 9131   4.212   0.775   4.130  0.3888 -0.5480  0.1176
 2486SOL    HW1 9132   4.300   0.753   4.163  0.7559  1.2686  0.4145
 2486SOL    HW2 9133   4.227   0.798   4.038  0.3549  0.5430  0.3825
 2486SOL     MW 9134   4.225   0.775   4.122  0.4315 -0.1758  0.1898
 2487SOL     OW 9135   4.529   3.243   3.419  0.4924 -0.1189  0.3083
 2487SOL    HW1 9136   4.592   3.291   3.473 -0.1719  0.9971  0.0862
 2487SOL    HW2 9137   4.458   3.221   3.480  0.5621 -0.3839  0.2945
 2487SOL     MW 9138   4.528   3.246   3.434  0.4163 -0.0100  0.2782
 2488SOL     OW 9139   5.928   0.882   3.738  0.4181  0.2539 -0.6356
 2488SOL    HW1 9140   5.902   0.924   3.656  2.9209  0.1959 -1.4903
 2488SOL    HW2 9141   6.011   0.922   3.761  0.0822 -0.2329  1.5337
 2488SOL     MW 9142   5.935   0.892   3.731  0.6957  0.1842 -0.4673
 2489SOL     OW 9143   0.207   3.353   3.501  0.7370  0.2927  0.9438
 2489SOL    HW1 9144   0.234   3.385   3.415 -0.5100  1.9830  1.1613
 2489SOL    HW2 9145   0.181   3.262   3.485  1.2137  0.3642 -0.3141
 2489SOL     MW 9146   0.207   3.345   3.488  0.6384  0.5183  0.8106
 2490SOL     OW 9147   0.318   2.678   1.213 -0.0286  0.3085  0.5089
 2490SOL    HW1 9148   0.393   2.698   1.158  0.2115  1.6534  1.3051
 2490SOL    HW2 9149   0.242   2.704   1.161  0.1132 -0.0717  0.1171
 2490SOL     MW 9150   0.318   2.684   1.200  0.0203  0.4318  0.5606
 2491SOL     OW 9151   2.491   1.590   0.021 -0.6708 -0.0477  0.2890
 2491SOL    HW1 9152   2.432   1.545   0.081 -3.0575  0.7556 -1.3680
 2491SOL    HW2 9153   2.477   1.683   0.040  0.9083  0.1236  0.6418
 2491SOL     MW 9154   2.482   1.597   0.031 -0.7741  0.0770  0.1220
 2492SOL     OW 9155   4.001   5.767   0.244  0.1161 -0.6128  0.4402
 2492SOL    HW1 9156   3.964   5.846   0.283 -0.8854 -0.9754  0.2344
 2492SOL    HW2 9157   3.989   5.699   0.310 -0.3318 -0.9134  0.0535
 2492SOL     MW 9158   3.995   5.768   0.257 -0.0691 -0.6981  0.3644
 2493SOL     OW 9159   4.126   2.746   1.856  0.4490  0.2707 -0.6464
 2493SOL    HW1 9160   4.034   2.745   1.829  0.1721 -0.8485  0.2874
 2493SOL    HW2 9161   4.125   2.783   1.944  0.5955 -1.9631  0.3232
 2493SOL     MW 9162   4.114   2.751   1.864  0.4330 -0.1581 -0.4027
 2494SOL     OW 9163   3.464   0.325   1.703 -0.3883 -0.2265 -0.6410
 2494SOL    HW1 9164   3.424   0.411   1.714 -0.1732 -0.1945 -0.1020
 2494SOL    HW2 9165   3.553   0.336   1.737 -0.5549 -0.8233 -0.0067
 2494SOL     MW 9166   3.471   0.338   1.708 -0.3822 -0.2989 -0.4908
 2495SOL     OW 9167   5.282   4.241   1.035 -0.0348  0.1535  0.1065
 2495SOL    HW1 9168   5.254   4.186   1.108 -1.1921  1.0924  0.3824
 2495SOL    HW2 9169   5.243   4.199   0.958 -1.6350  1.0452  0.4103
 2495SOL     MW 9170   5.274   4.228   1.034 -0.3881  0.3877  0.1808
 2496SOL     OW 9171   3.993   3.421   5.708 -0.3575 -0.1172 -0.4584
 2496SOL    HW1 9172   4.052   3.377   5.770  0.7783  1.4767 -0.3964
 2496SOL    HW2 9173   4.048   3.484   5.663 -1.4091 -0.5578 -2.3989
 2496SOL     MW 9174   4.008   3.423   5.711 -0.3467  0.0305 -0.6990
 2497SOL     OW 9175   0.018   2.721   3.534  0.3798  0.1985  0.7093
 2497SOL    HW1 9176   0.066   2.695   3.612  0.2358 -1.7938  0.1748
 2497SOL    HW2 9177   0.050   2.809   3.513  1.9856 -0.1196  1.7612
 2497SOL     MW 9178   0.028   2.729   3.541  0.5669 -0.0973  0.7756
 2498SOL     OW 9179   2.274   3.711   2.322  0.3269  0.1464 -0.7612
 2498SOL    HW1 9180   2.237   3.732   2.408  0.9417  0.2904 -0.5325
 2498SOL    HW2 9181   2.221   3.762   2.261 -0.9973 -1.0021 -0.5987
 2498SOL     MW 9182   2.262   3.720   2.325  0.2363  0.0179 -0.7110
 2499SOL     OW 9183   1.309   0.943   2.763  0.2674  0.1289  0.1729
 2499SOL    HW1 9184   1.248   0.885   2.718  0.7481 -0.5663  0.4031
 2499SOL    HW2 9185   1.330   1.011   2.699 -0.7867  0.4010  0.1140
 2499SOL     MW 9186   1.304   0.944   2.749  0.1940  0.0747  0.1945
 2500SOL     OW 9187   3.105   3.734   3.004 -0.4398  0.0726  0.5747
 2500SOL    HW1 9188   3.192   3.697   3.018 -0.5328  0.4917  2.3527
 2500SOL    HW2 9189   3.047   3.658   2.996  0.0358 -0.2029 -0.2799
 2500SOL     MW 9190   3.108   3.720   3.005 -0.3905  0.0908  0.6931
 2501SOL     OW 9191   0.071   4.884   1.573 -0.2569 -0.0133 -0.1259
 2501SOL    HW1 9192  -0.013   4.928   1.560 -0.7113 -0.5258  0.9775
 2501SOL    HW2 9193   0.125   4.949   1.618 -0.0126  0.3658 -0.9636
 2501SOL     MW 9194   0.067   4.898   1.577 -0.2838 -0.0305 -0.0920
 2502SOL     OW 9195   0.107   3.464   4.692  0.3736 -0.1949 -0.1380
 2502SOL    HW1 9196   0.115   3.481   4.786  0.3918  0.4448 -0.2548
 2502SOL    HW2 9197   0.017   3.488   4.671  0.0509 -1.3166 -0.0872
 2502SOL     MW 9198   0.096   3.469   4.701  0.3346 -0.2565 -0.1464
 2503SOL     OW 9199   5.082   3.547   5.661  0.0078 -0.1677  0.4390
 2503SOL    HW1 9200   5.108   3.508   5.578 -0.5889 -3.3728  1.6598
 2503SOL    HW2 9201   5.153   3.608   5.683  1.5986 -1.4603 -1.0138
 2503SOL     MW 9202   5.094   3.550   5.653  0.1349 -0.7436  0.4091
 2504SOL     OW 9203   2.005   0.381   2.230 -0.0116  0.1305 -0.1600
 2504SOL    HW1 9204   1.955   0.460   2.248  0.3518  0.5358 -0.9177
 2504SOL    HW2 9205   1.939   0.316   2.205 -0.5685 -0.5233  2.7896
 2504SOL     MW 9206   1.990   0.383   2.229 -0.0365  0.0988  0.1206
 2505SOL     OW 9207   0.949   4.902   0.841  0.2151  0.0343  0.2659
 2505SOL    HW1 9208   0.947   4.813   0.877 -0.2986  0.5125  1.4180
 2505SOL    HW2 9209   1.035   4.936   0.864  0.8644 -0.5623 -1.1818
 2505SOL     MW 9210   0.960   4.895   0.848  0.2325  0.0191  0.2281
 2506SOL     OW 9211   3.736   3.055   5.396  0.3597 -0.2531 -0.4109
 2506SOL    HW1 9212   3.663   3.025   5.450  0.2606  0.6406 -0.0308
 2506SOL    HW2 9213   3.701   3.130   5.348  0.4371 -1.0721 -1.7717
 2506SOL     MW 9214   3.722   3.061   5.397  0.3569 -0.2434 -0.5369
 2507SOL     OW 9215   4.771   4.195   1.551 -0.4542  0.2526  0.2590
 2507SOL    HW1 9216   4.694   4.139   1.555 -0.4058  0.2345  0.9930
 2507SOL    HW2 9217   4.773   4.227   1.461 -1.3916  0.3616  0.2741
 2507SOL     MW 9218   4.762   4.192   1.540 -0.5684  0.2646  0.3550
 2508SOL     OW 9219   3.125   2.078   2.788 -0.6786  0.3287 -0.0550
 2508SOL    HW1 9220   3.058   2.115   2.845 -1.4686 -1.7187  0.4101
 2508SOL    HW2 9221   3.187   2.036   2.848  1.0286  2.1643 -0.4836
 2508SOL     MW 9222   3.124   2.077   2.803 -0.5612  0.3011 -0.0503
 2509SOL     OW 9223   1.318   3.249   4.632 -0.2028 -0.2817 -0.5442
 2509SOL    HW1 9224   1.390   3.229   4.572  0.9748 -2.2014  1.4442
 2509SOL    HW2 9225   1.349   3.221   4.717 -2.0710  1.9199  0.9201
 2509SOL     MW 9226   1.331   3.243   4.635 -0.2912 -0.2453 -0.1020
 2510SOL     OW 9227   3.298   1.716   3.744  0.3147  0.7494 -0.0858
 2510SOL    HW1 9228   3.233   1.762   3.796  0.7128 -0.2801  1.3342
 2510SOL    HW2 9229   3.309   1.631   3.787  0.7479 -0.0754 -1.7626
 2510SOL     MW 9230   3.291   1.711   3.756  0.4208  0.5120 -0.1187
 2511SOL     OW 9231   2.867   0.372   4.055  0.4171 -0.0688  0.2741
 2511SOL    HW1 9232   2.800   0.318   4.095 -0.3832  1.2635  0.7507
 2511SOL    HW2 9233   2.840   0.382   3.964 -0.8625  1.6983  0.8128
 2511SOL     MW 9234   2.855   0.367   4.048  0.1509  0.3280  0.4034
 2512SOL     OW 9235   4.291   2.839   5.692 -0.0039  0.3410  0.2990
 2512SOL    HW1 9236   4.340   2.839   5.774 -1.2074  1.6305  1.0392
 2512SOL    HW2 9237   4.231   2.912   5.700 -1.0442 -0.3233 -1.2059
 2512SOL     MW 9238   4.290   2.848   5.703 -0.2913  0.4210  0.2012
 2513SOL     OW 9239   5.026   4.325   1.335 -0.4624  0.0854 -0.0725
 2513SOL    HW1 9240   5.062   4.245   1.297 -0.8214 -0.2859  0.3645
 2513SOL    HW2 9241   4.933   4.322   1.314 -0.2923  0.9416 -1.0155
 2513SOL     MW 9242   5.019   4.315   1.328 -0.4864  0.1473 -0.1374
 2514SOL     OW 9243   3.757   4.981   0.080 -0.2307 -0.3287  0.3139
 2514SOL    HW1 9244   3.822   5.047   0.052 -0.8561 -0.5116 -1.6222
 2514SOL    HW2 9245   3.807   4.920   0.133  0.9511  0.1931 -0.1752
 2514SOL     MW 9246   3.772   4.982   0.083 -0.1595 -0.2856  0.0035
 2515SOL     OW 9247   1.340   1.125   5.237  0.1193  0.7003 -0.5884
 2515SOL    HW1 9248   1.358   1.038   5.200  2.2603  1.9206 -2.5508
 2515SOL    HW2 9249   1.276   1.164   5.178  0.5535  1.1659 -0.7516
 2515SOL     MW 9250   1.334   1.119   5.225  0.4489  0.9161 -0.8607
 2516SOL     OW 9251   1.514   5.169   4.928  0.0579  0.6460  0.2002
 2516SOL    HW1 9252   1.449   5.127   4.871 -0.2495 -0.2261  1.1758
 2516SOL    HW2 9253   1.518   5.260   4.897  0.0056  0.1458 -1.2956
 2516SOL     MW 9254   1.506   5.176   4.917  0.0118  0.4706  0.1335
 2517SOL     OW 9255   4.993   5.606   4.405  0.1516 -0.3426 -0.1527
 2517SOL    HW1 9256   4.949   5.534   4.449  0.7318 -1.6155 -1.5914
 2517SOL    HW2 9257   4.960   5.604   4.315 -0.7083  1.9414  0.0871
 2517SOL     MW 9258   4.983   5.597   4.399  0.1159 -0.2131 -0.3057
 2518SOL     OW 9259   2.848   3.050   2.930  0.3125 -0.4127  0.4063
 2518SOL    HW1 9260   2.886   3.077   3.013 -1.0262  0.5537  0.7356
 2518SOL    HW2 9261   2.804   2.968   2.949 -0.7779  0.2693  0.8982
 2518SOL     MW 9262   2.847   3.043   2.943  0.0014 -0.2017  0.5114
 2519SOL     OW 9263   1.437   1.893   5.371 -0.5699  0.1521 -0.3573
 2519SOL    HW1 9264   1.343   1.885   5.386 -0.3393  0.5651  1.4018
 2519SOL    HW2 9265   1.465   1.963   5.429  0.7013  0.5890 -1.4612
 2519SOL     MW 9266   1.428   1.901   5.380 -0.3775  0.2608 -0.2732
 2520SOL     OW 9267   3.090   5.933   4.135  0.1125 -0.4439  0.3330
 2520SOL    HW1 9268   3.109   5.968   4.222 -0.6253 -0.6081  0.5572
 2520SOL    HW2 9269   3.176   5.909   4.100  0.2619 -1.8116  1.6062
 2520SOL     MW 9270   3.103   5.935   4.142  0.0372 -0.6399  0.5240
 2521SOL     OW 9271   1.318   4.136   0.216 -0.7912 -0.5495 -0.2749
 2521SOL    HW1 9272   1.286   4.200   0.153 -1.7601 -1.5758 -0.8373
 2521SOL    HW2 9273   1.258   4.062   0.208 -0.0907 -1.2565  0.8535
 2521SOL     MW 9274   1.306   4.134   0.207 -0.8255 -0.7715 -0.2024
 2522SOL     OW 9275   5.548   4.690   2.924 -0.1320  0.1526 -0.1450
 2522SOL    HW1 9276   5.541   4.754   2.853  1.7676 -1.9336 -2.2932
 2522SOL    HW2 9277   5.481   4.624   2.903 -0.1600 -0.0193  0.4870
 2522SOL     MW 9278   5.538   4.690   2.912  0.1078 -0.1364 -0.3393
 2523SOL     OW 9279   5.675   0.369   0.084 -0.1795 -0.4097 -0.4587
 2523SOL    HW1 9280   5.691   0.281   0.119  0.4947  0.5113  1.6770
 2523SOL    HW2 9281   5.763   0.408   0.077 -0.4909  0.1832 -1.1589
 2523SOL     MW 9282   5.688   0.363   0.088 -0.1330 -0.2159 -0.2750
 2524SOL     OW 9283   1.179   5.828   0.134  0.5314  0.0016 -0.7105
 2524SOL    HW1 9284   1.122   5.794   0.202 -1.2319  0.3621 -1.9584
 2524SOL    HW2 9285   1.234   5.893   0.178  1.0554 -1.4698  0.8207
 2524SOL     MW 9286   1.179   5.832   0.148  0.3728 -0.1402 -0.6742
 2525SOL     OW 9287   0.242   2.627   0.693  0.4132  0.1701  0.6635
 2525SOL    HW1 9288   0.200   2.551   0.732 -0.4537  0.9695  1.3009
 2525SOL    HW2 9289   0.176   2.663   0.634  1.2579 -0.2764 -0.5729
 2525SOL     MW 9290   0.228   2.622   0.690  0.4103  0.2155  0.5869
 2526SOL     OW 9291   0.927   3.246   1.599 -0.1322  0.3659 -0.5061
 2526SOL    HW1 9292   0.999   3.184   1.590 -0.3233 -0.0698  0.7879
 2526SOL    HW2 9293   0.969   3.331   1.607  0.2909  0.0452  0.8872
 2526SOL     MW 9294   0.942   3.249   1.599 -0.1025  0.2689 -0.1620
 2527SOL     OW 9295   4.055   4.984   5.260  0.6260 -0.6019 -0.4141
 2527SOL    HW1 9296   4.139   5.003   5.219  1.0808  0.1256  0.8479
 2527SOL    HW2 9297   3.993   5.042   5.216  0.8497 -0.8371 -1.0473
 2527SOL     MW 9298   4.058   4.994   5.249  0.7129 -0.5388 -0.3338
 2528SOL     OW 9299   1.530   1.170   4.307  0.4832 -0.3121  0.0660
 2528SOL    HW1 9300   1.453   1.143   4.357  1.8365 -1.2395  1.6919
 2528SOL    HW2 9301   1.597   1.106   4.329  1.8583  0.7334 -0.9807
 2528SOL     MW 9302   1.529   1.158   4.317  0.8324 -0.2970  0.1407
 2529SOL     OW 9303   3.273   2.667   1.205  0.3870 -0.1162  0.1431
 2529SOL    HW1 9304   3.253   2.610   1.279  1.1090 -1.7976 -0.9368
 2529SOL    HW2 9305   3.315   2.610   1.141  3.5440  2.1146  0.0898
 2529SOL     MW 9306   3.276   2.653   1.207  0.8838 -0.0460 -0.0020
 2530SOL     OW 9307   0.313   4.960   0.319 -0.1011 -0.4575  0.4721
 2530SOL    HW1 9308   0.334   4.955   0.226  0.3784 -1.6162  0.6328
 2530SOL    HW2 9309   0.217   4.965   0.322 -0.0625  0.9575 -0.1216
 2530SOL     MW 9310   0.303   4.960   0.307 -0.0348 -0.4249  0.4167
 2531SOL     OW 9311   4.139   5.995   1.137  0.2826 -0.0885  0.0562
 2531SOL    HW1 9312   4.146   6.031   1.225  2.5179 -0.3041  0.0070
 2531SOL    HW2 9313   4.204   6.043   1.086  0.4078 -1.3236 -0.9848
 2531SOL     MW 9314   4.149   6.006   1.142  0.5851 -0.2742 -0.0834
 2532SOL     OW 9315   2.336   1.441   3.514 -0.4955 -0.0833  0.4113
 2532SOL    HW1 9316   2.351   1.520   3.566 -1.4037 -0.6309  1.5099
 2532SOL    HW2 9317   2.315   1.373   3.578 -2.6643 -0.5219 -0.6984
 2532SOL     MW 9318   2.335   1.443   3.529 -0.8891 -0.2095  0.4101
 2533SOL     OW 9319   2.809   3.578   2.348  0.7035  0.0468 -0.0939
 2533SOL    HW1 9320   2.825   3.490   2.383 -0.2839 -0.1158 -0.0506
 2533SOL    HW2 9321   2.874   3.633   2.393 -0.1204 -0.2799  1.5138
 2533SOL     MW 9322   2.820   3.574   2.358  0.4718 -0.0157  0.1173
 2534SOL     OW 9323   3.889   5.669   2.022 -0.0707 -0.2214  0.0212
 2534SOL    HW1 9324   3.874   5.710   2.107  0.7109  1.0982 -0.4693
 2534SOL    HW2 9325   3.920   5.581   2.044 -1.2964 -0.4178  1.0765
 2534SOL     MW 9326   3.891   5.663   2.036 -0.1273 -0.0768  0.0932
 2535SOL     OW 9327   0.017   4.319   4.494 -0.3068 -0.0465  0.1904
 2535SOL    HW1 9328   0.102   4.304   4.535 -0.8238 -1.7308  0.7207
 2535SOL    HW2 9329   0.001   4.239   4.443 -1.9970 -0.1904  0.8921
 2535SOL     MW 9330   0.026   4.307   4.493 -0.5893 -0.2809  0.3481
 2536SOL     OW 9331   1.468   5.819   1.092  0.6261 -0.3250  0.5687
 2536SOL    HW1 9332   1.410   5.752   1.058 -0.5628  1.5076 -1.1550
 2536SOL    HW2 9333   1.551   5.805   1.046 -0.2912  0.7162 -1.4800
 2536SOL     MW 9334   1.471   5.809   1.082  0.3564  0.0424  0.0857
 2537SOL     OW 9335   1.007   1.384   2.015 -0.4384 -0.6510  0.2533
 2537SOL    HW1 9336   0.965   1.453   1.964 -0.3177 -0.0745  0.9176
 2537SOL    HW2 9337   1.077   1.429   2.063  0.3191 -1.4292 -0.1144
 2537SOL     MW 9338   1.011   1.398   2.015 -0.3259 -0.6766  0.2911
 2538SOL     OW 9339   2.989   3.101   1.365  0.2748 -0.3428  0.1802
 2538SOL    HW1 9340   2.894   3.100   1.376  0.3654 -0.4618  0.9776
 2538SOL    HW2 9341   3.002   3.117   1.271 -0.5241  0.3224  0.1780
 2538SOL     MW 9342   2.978   3.103   1.354  0.1841 -0.2728  0.2818
 2539SOL     OW 9343   1.101   4.847   4.995  0.1863 -0.4376  0.5329
 2539SOL    HW1 9344   1.157   4.925   4.994  1.4993 -1.3418  1.6125
 2539SOL    HW2 9345   1.075   4.836   4.904  2.4126 -0.4271 -0.1476
 2539SOL     MW 9346   1.105   4.856   4.983  0.6393 -0.5522  0.5836
 2540SOL     OW 9347   5.281   0.282   0.800  0.2734  0.1671  0.3047
 2540SOL    HW1 9348   5.295   0.358   0.744  2.0551 -0.4887 -0.1621
 2540SOL    HW2 9349   5.254   0.213   0.740 -0.5693  0.2016  0.6303
 2540SOL     MW 9350   5.279   0.283   0.785  0.3934  0.0876  0.2866
 2541SOL     OW 9351   1.503   0.414   5.581 -0.1245 -0.7234  0.0956
 2541SOL    HW1 9352   1.491   0.322   5.606  0.9843 -1.0129 -0.3914
 2541SOL    HW2 9353   1.574   0.445   5.637 -0.2012 -0.2899 -0.0446
 2541SOL     MW 9354   1.511   0.406   5.591  0.0075 -0.7049  0.0148
 2542SOL     OW 9355   2.689   0.367   2.233 -0.2547  0.0855  0.4918
 2542SOL    HW1 9356   2.676   0.432   2.164 -1.1588 -1.1605 -0.5421
 2542SOL    HW2 9357   2.748   0.303   2.194 -1.7919 -1.3063  0.3662
 2542SOL     MW 9358   2.695   0.367   2.219 -0.5674 -0.2522  0.3433
 2543SOL     OW 9359   2.481   1.804   2.248 -0.5860  0.1429 -0.3717
 2543SOL    HW1 9360   2.436   1.843   2.323 -0.6235 -0.1105 -0.2618
 2543SOL    HW2 9361   2.411   1.765   2.195 -0.5030 -0.2037 -0.2292
 2543SOL     MW 9362   2.466   1.804   2.251 -0.5801  0.0660 -0.3393
 2544SOL     OW 9363   1.085   5.697   0.371  0.3581  0.3814  0.4588
 2544SOL    HW1 9364   1.042   5.763   0.426 -1.8569 -2.3738  2.1746
 2544SOL    HW2 9365   1.167   5.677   0.417  0.8571  1.5899  0.1299
 2544SOL     MW 9366   1.090   5.703   0.384  0.1384  0.1836  0.6363
 2545SOL     OW 9367   1.226   5.927   2.190 -0.1079  0.2014  0.1340
 2545SOL    HW1 9368   1.271   5.851   2.226 -1.3879 -0.9110 -0.6122
 2545SOL    HW2 9369   1.134   5.903   2.188 -0.4910  1.6340 -0.4538
 2545SOL     MW 9370   1.220   5.914   2.194 -0.3206  0.2427 -0.0370
 2546SOL     OW 9371   3.065   4.896   1.903 -0.7611 -0.0797 -0.5729
 2546SOL    HW1 9372   3.008   4.864   1.973 -0.5471  0.8958  0.0560
 2546SOL    HW2 9373   3.049   4.990   1.899  0.7164  0.2038 -0.4344
 2546SOL     MW 9374   3.056   4.904   1.912 -0.5445  0.0820 -0.4747
 2547SOL     OW 9375   1.985   4.679   2.558 -0.4209  0.2741 -0.0663
 2547SOL    HW1 9376   1.966   4.696   2.466  0.8156  1.8687 -0.0617
 2547SOL    HW2 9377   2.036   4.599   2.558 -0.9055 -0.0389 -0.7184
 2547SOL     MW 9378   1.989   4.671   2.546 -0.3246  0.4382 -0.1490
 2548SOL     OW 9379   5.705   0.484   2.776 -0.0572 -0.1454  0.1103
 2548SOL    HW1 9380   5.614   0.455   2.765 -0.4890  1.2918 -0.2532
 2548SOL    HW2 9381   5.706   0.572   2.740  1.5753 -0.2748 -0.2028
 2548SOL     MW 9382   5.693   0.491   2.770  0.0968  0.0220  0.0236
 2549SOL     OW 9383   0.854   4.178   3.773  0.1238  0.3504  0.7488
 2549SOL    HW1 9384   0.930   4.167   3.716  0.1338  1.2421  0.5741
 2549SOL    HW2 9385   0.806   4.095   3.767 -1.8886  1.6880 -3.5416
 2549SOL     MW 9386   0.858   4.166   3.765 -0.1325  0.6361  0.1771
 2550SOL     OW 9387   4.157   1.325   5.069  0.6962 -0.2852  0.5550
 2550SOL    HW1 9388   4.163   1.240   5.025  0.3356 -0.5800  1.0689
 2550SOL    HW2 9389   4.179   1.306   5.161  1.0713  0.2588  0.5790
 2550SOL     MW 9390   4.161   1.312   5.075  0.6981 -0.2533  0.6242
 2551SOL     OW 9391   2.446   5.352   3.287  0.1661 -0.1631  0.5281
 2551SOL    HW1 9392   2.370   5.307   3.251  1.2097  0.1344 -2.2303
 2551SOL    HW2 9393   2.464   5.422   3.225  1.3103  1.2092  2.3569
 2551SOL     MW 9394   2.439   5.355   3.274  0.4461  0.0501  0.4091
 2552SOL     OW 9395   0.934   1.261   0.144  0.4200 -0.5284  0.2461
 2552SOL    HW1 9396   0.845   1.242   0.117  0.3426  1.9698 -1.4416
 2552SOL    HW2 9397   0.986   1.188   0.109 -0.4457 -0.0567 -2.0874
 2552SOL     MW 9398   0.929   1.249   0.136  0.2993 -0.1484 -0.2687
 2553SOL     OW 9399   3.757   5.922   1.129 -0.4828 -0.1615  0.3669
 2553SOL    HW1 9400   3.833   5.931   1.072 -0.5496 -1.0481  0.1246
 2553SOL    HW2 9401   3.702   5.857   1.084 -1.6143  0.8517  0.2742
 2553SOL     MW 9402   3.759   5.914   1.116 -0.6363 -0.1450  0.3240
 2554SOL     OW 9403   3.934   1.793   5.398  0.0903  0.1401 -0.2049
 2554SOL    HW1 9404   3.974   1.751   5.321 -1.7354 -1.2289 -0.4239
 2554SOL    HW2 9405   3.993   1.770   5.470 -0.1261 -1.6643 -0.5655
 2554SOL     MW 9406   3.947   1.784   5.397 -0.1712 -0.2663 -0.2785
 2555SOL     OW 9407   4.181   2.257   3.741  0.1740 -0.1785 -0.0956
 2555SOL    HW1 9408   4.179   2.243   3.836  0.7673  0.0949 -0.0375
 2555SOL    HW2 9409   4.160   2.171   3.704  1.3382 -0.6474  0.2807
 2555SOL     MW 9410   4.178   2.244   3.748  0.3986 -0.2036 -0.0401
 2556SOL     OW 9411   0.424   2.207   1.514  0.1040  0.1237  0.2066
 2556SOL    HW1 9412   0.404   2.249   1.430 -1.8217  0.3617  0.7451
 2556SOL    HW2 9413   0.386   2.119   1.507  1.2235 -0.3711  0.2942
 2556SOL     MW 9414   0.416   2.201   1.502  0.0009  0.0908  0.2867
 2557SOL     OW 9415   2.411   2.500   1.299 -0.3557  0.3020  0.3740
 2557SOL    HW1 9416   2.378   2.469   1.215  1.0673 -0.5454  0.1125
 2557SOL    HW2 9417   2.479   2.563   1.276 -1.0514  1.2449  0.8975
 2557SOL     MW 9418   2.416   2.504   1.285 -0.2627  0.3142  0.4076
 2558SOL     OW 9419   1.712   2.257   5.036  0.1208  0.3492  0.1707
 2558SOL    HW1 9420   1.627   2.245   4.994 -0.7706  1.1163  1.7201
 2558SOL    HW2 9421   1.776   2.228   4.970 -1.3510 -0.7305 -0.8052
 2558SOL     MW 9422   1.710   2.252   5.022 -0.1817  0.3090  0.2446
 2559SOL     OW 9423   0.528   4.743   4.833 -0.0302  0.3342  0.4024
 2559SOL    HW1 9424   0.481   4.694   4.765 -1.1531  1.6712  0.1800
 2559SOL    HW2 9425   0.509   4.696   4.914  0.0573 -0.3985  0.0019
 2559SOL     MW 9426   0.519   4.731   4.834 -0.1628  0.4115  0.3223
 2560SOL     OW 9427   4.115   4.114   4.016  0.0818  0.2197  0.2561
 2560SOL    HW1 9428   4.092   4.076   3.931 -0.3736 -1.1539  0.9977
 2560SOL    HW2 9429   4.046   4.178   4.033  0.8944  1.4786 -1.0229
 2560SOL     MW 9430   4.103   4.118   4.007  0.1283  0.2050  0.1874
 2561SOL     OW 9431   2.409   2.067   1.427  0.2233 -0.0366  0.3764
 2561SOL    HW1 9432   2.343   2.095   1.364 -1.1076 -2.7310  0.5403
 2561SOL    HW2 9433   2.374   2.092   1.512  1.4012  2.3589  0.2135
 2561SOL     MW 9434   2.396   2.074   1.429  0.2038 -0.0751  0.3766
 2562SOL     OW 9435   0.150   0.030   2.354  0.2729 -0.2322  0.5612
 2562SOL    HW1 9436   0.120   0.041   2.264 -0.3261 -0.8329  0.6775
 2562SOL    HW2 9437   0.216  -0.039   2.350 -0.5596 -1.0597  0.7277
 2562SOL     MW 9438   0.154   0.022   2.342  0.0897 -0.4150  0.5977
 2563SOL     OW 9439   2.322   3.617   1.522  0.4033  0.1736 -0.7942
 2563SOL    HW1 9440   2.391   3.558   1.489  0.9354  0.7098 -0.6551
 2563SOL    HW2 9441   2.341   3.701   1.481  0.7444  0.7100  0.4392
 2563SOL     MW 9442   2.333   3.620   1.513  0.5150  0.3109 -0.6186
 2564SOL     OW 9443   2.699   2.505   3.502  0.2116 -0.0593 -0.3797
 2564SOL    HW1 9444   2.629   2.456   3.459 -1.0371  1.7348 -0.4525
 2564SOL    HW2 9445   2.654   2.559   3.567  1.4434  1.6212 -0.8859
 2564SOL     MW 9446   2.684   2.506   3.505  0.2091  0.3855 -0.4537
 2565SOL     OW 9447   5.452   0.052   0.127 -0.6586 -0.1540 -0.4380
 2565SOL    HW1 9448   5.450  -0.038   0.095 -0.3090  0.8133 -3.3538
 2565SOL    HW2 9449   5.410   0.103   0.057  0.7150  2.1630  0.3818
 2565SOL     MW 9450   5.446   0.047   0.114 -0.4377  0.2664 -0.7063
 2566SOL     OW 9451   1.181   5.668   0.753  0.3087  0.7325  0.0878
 2566SOL    HW1 9452   1.149   5.666   0.843 -1.5120 -0.6000 -0.5472
 2566SOL    HW2 9453   1.133   5.597   0.709  0.2862  2.1188 -2.2078
 2566SOL     MW 9454   1.171   5.658   0.759  0.0728  0.7396 -0.2874
 2567SOL     OW 9455   2.302   5.868   1.735 -0.5958  0.1469  0.5240
 2567SOL    HW1 9456   2.300   5.789   1.680 -1.3509 -0.1755  1.0012
 2567SOL    HW2 9457   2.243   5.929   1.692 -0.3939  0.2668  0.4197
 2567SOL     MW 9458   2.294   5.865   1.723 -0.6666  0.1211  0.5717
 2568SOL     OW 9459   3.638   3.572   1.878 -0.3262  0.3622 -0.3327
 2568SOL    HW1 9460   3.606   3.649   1.830  1.3675  1.1147 -0.3012
 2568SOL    HW2 9461   3.722   3.600   1.914  0.4728 -1.6231 -0.5883
 2568SOL     MW 9462   3.645   3.586   1.877 -0.0072  0.2046 -0.3612
 2569SOL     OW 9463   0.657   5.699   3.638 -0.6796 -0.1152  0.1868
 2569SOL    HW1 9464   0.647   5.627   3.701 -2.0515  0.8092  1.0716
 2569SOL    HW2 9465   0.606   5.671   3.562  0.7454 -1.1126 -0.4120
 2569SOL     MW 9466   0.649   5.686   3.636 -0.6728 -0.1249  0.2234
 2570SOL     OW 9467   5.751   5.346   4.250  0.3211  0.2628 -0.3357
 2570SOL    HW1 9468   5.701   5.336   4.169 -0.4446  0.2141  0.1356
 2570SOL    HW2 9469   5.839   5.318   4.227  1.3180  4.6947 -2.3794
 2570SOL     MW 9470   5.756   5.341   4.237  0.3510  0.8240 -0.5369
 2571SOL     OW 9471   5.546   5.897   1.627 -0.0538 -0.7481 -0.1223
 2571SOL    HW1 9472   5.621   5.857   1.671  0.1180 -2.0028 -1.5228
 2571SOL    HW2 9473   5.476   5.893   1.691  1.0876  0.5383  1.2471
 2571SOL     MW 9474   5.547   5.891   1.641  0.1140 -0.7439 -0.1262
 2572SOL     OW 9475   5.307   1.660   1.834  0.3203 -0.1336 -0.0235
 2572SOL    HW1 9476   5.243   1.677   1.765  0.1756 -1.4483 -0.2309
 2572SOL    HW2 9477   5.343   1.573   1.813  0.9530 -0.1416  1.0293
 2572SOL     MW 9478   5.304   1.651   1.823  0.3829 -0.3029  0.0846
 2573SOL     OW 9479   1.359   1.379   1.545  0.2980  0.0118 -0.8399
 2573SOL    HW1 9480   1.286   1.383   1.484 -0.8230  0.5725  0.4985
 2573SOL    HW2 9481   1.406   1.461   1.532 -1.7359  1.5632  1.1791
 2573SOL     MW 9482   1.355   1.390   1.536 -0.1057  0.2822 -0.4101
 2574SOL     OW 9483   0.803   5.539   1.878  0.7529  0.1704  0.7629
 2574SOL    HW1 9484   0.728   5.502   1.925 -0.8580  0.6096 -1.3969
 2574SOL    HW2 9485   0.795   5.634   1.890  1.2946  0.1998  0.9538
 2574SOL     MW 9486   0.793   5.547   1.886  0.6161  0.2303  0.5109
 2575SOL     OW 9487   4.394   2.355   3.581  0.0363 -0.3768 -0.0024
 2575SOL    HW1 9488   4.480   2.338   3.620  0.1300  1.2657  0.5474
 2575SOL    HW2 9489   4.333   2.305   3.635  0.4724 -0.1964  0.6685
 2575SOL     MW 9490   4.397   2.347   3.593  0.1044 -0.1435  0.1540
 2576SOL     OW 9491   1.174   5.481   5.439  0.0944  0.1214 -0.1862
 2576SOL    HW1 9492   1.132   5.564   5.415 -0.9848  0.2886  2.1106
 2576SOL    HW2 9493   1.223   5.456   5.361 -2.3900  1.1431 -2.1739
 2576SOL     MW 9494   1.175   5.489   5.426 -0.3617  0.2737 -0.1469
 2577SOL     OW 9495   5.748   5.643   2.968 -0.4364  0.7155  0.2411
 2577SOL    HW1 9496   5.780   5.609   2.885 -1.4640  0.4215 -0.0343
 2577SOL    HW2 9497   5.708   5.727   2.945 -2.0136 -0.0321  0.2066
 2577SOL     MW 9498   5.747   5.650   2.955 -0.7696  0.5817  0.2015
 2578SOL     OW 9499   4.745   5.458   5.566 -0.0034 -0.5346  0.8012
 2578SOL    HW1 9500   4.834   5.490   5.552  0.3985 -1.1036  1.9767
 2578SOL    HW2 9501   4.755   5.380   5.620 -1.1874 -0.8872  0.5390
 2578SOL     MW 9502   4.757   5.452   5.571 -0.1035 -0.6528  0.9174
 2579SOL     OW 9503   3.831   2.095   0.234 -0.0027 -0.1624 -0.1263
 2579SOL    HW1 9504   3.906   2.125   0.184 -0.3040  0.5252 -0.1810
 2579SOL    HW2 9505   3.865   2.082   0.323  0.6010 -1.6908 -0.5646
 2579SOL     MW 9506   3.845   2.097   0.239  0.0358 -0.2701 -0.1894
 2580SOL     OW 9507   0.534   2.587   3.538 -0.5673 -0.6415 -0.0921
 2580SOL    HW1 9508   0.504   2.671   3.571 -1.0642 -1.1239  0.6749
 2580SOL    HW2 9509   0.480   2.571   3.461 -1.3486 -0.8671  0.5039
 2580SOL     MW 9510   0.523   2.596   3.532 -0.7309 -0.7319  0.0823
 2581SOL     OW 9511   1.693   1.409   2.441  0.1708 -0.2089 -0.2098
 2581SOL    HW1 9512   1.649   1.403   2.356 -0.8435  0.0813  0.2914
 2581SOL    HW2 9513   1.781   1.440   2.421  0.2933 -1.2086 -1.2673
 2581SOL     MW 9514   1.699   1.412   2.428  0.0566 -0.2998 -0.2809
 2582SOL     OW 9515   0.948   0.300   4.454  0.1921  0.7786  0.1537
 2582SOL    HW1 9516   1.016   0.363   4.475  1.9024 -1.0703  0.3230
 2582SOL    HW2 9517   0.987   0.245   4.386 -1.3106 -0.0116 -0.0882
 2582SOL     MW 9518   0.962   0.301   4.448  0.2186  0.4407  0.1440
 2583SOL     OW 9519   4.186   1.344   5.585  0.0691 -0.3626  0.9778
 2583SOL    HW1 9520   4.113   1.283   5.598 -0.0437 -0.0211  2.0134
 2583SOL    HW2 9521   4.210   1.333   5.493 -2.1770  0.5141  0.2501
 2583SOL     MW 9522   4.180   1.335   5.575 -0.2332 -0.2067  1.0171
 2584SOL     OW 9523   4.647   3.356   4.022  0.5645  0.4397 -0.9170
 2584SOL    HW1 9524   4.616   3.266   4.019  0.4599  0.4770 -0.9760
 2584SOL    HW2 9525   4.698   3.362   4.102 -0.0793  0.5361 -0.5123
 2584SOL     MW 9526   4.649   3.345   4.032  0.4687  0.4568 -0.8726
 2585SOL     OW 9527   1.503   3.225   2.950  0.1269 -0.2112  0.1745
 2585SOL    HW1 9528   1.410   3.249   2.954  0.6580  2.3306 -1.4369
 2585SOL    HW2 9529   1.506   3.157   2.883 -0.1514  2.3061 -2.5030
 2585SOL     MW 9530   1.491   3.220   2.942  0.1591  0.4365 -0.3746
 2586SOL     OW 9531   4.540   0.631   2.624 -0.2438 -0.1216 -0.4389
 2586SOL    HW1 9532   4.462   0.668   2.665 -0.8261  0.0519 -1.6985
 2586SOL    HW2 9533   4.515   0.542   2.599 -0.2143  0.1128 -1.3256
 2586SOL     MW 9534   4.527   0.625   2.626 -0.3147 -0.0694 -0.7136
 2587SOL     OW 9535   1.824   4.257   0.114 -0.3045 -0.2694  0.0023
 2587SOL    HW1 9536   1.735   4.224   0.098  0.1184 -0.7546 -1.3812
 2587SOL    HW2 9537   1.844   4.309   0.036 -0.3040  1.8560  1.3866
 2587SOL     MW 9538   1.815   4.260   0.102 -0.2503 -0.0596  0.0024
 2588SOL     OW 9539   2.625   0.764   4.434 -0.4131  0.4886 -0.1802
 2588SOL    HW1 9540   2.544   0.718   4.453 -0.9837  1.0949 -1.1127
 2588SOL    HW2 9541   2.601   0.857   4.438 -0.0565  0.6493 -1.6971
 2588SOL     MW 9542   2.612   0.770   4.437 -0.4404  0.5868 -0.4935
 2589SOL     OW 9543   3.476   2.301   0.336 -0.3122  0.2475 -0.1322
 2589SOL    HW1 9544   3.509   2.276   0.250  1.1877 -1.3774  0.8846
 2589SOL    HW2 9545   3.396   2.250   0.347  0.2071 -0.5496 -0.0249
 2589SOL     MW 9546   3.470   2.291   0.327 -0.0539 -0.0625  0.0117
 2590SOL     OW 9547   5.498   3.150   0.312 -0.2382 -0.4566 -0.6818
 2590SOL    HW1 9548   5.429   3.158   0.247  2.3158  4.0867 -3.0750
 2590SOL    HW2 9549   5.466   3.200   0.387 -1.7108 -2.8218  0.3247
 2590SOL     MW 9550   5.486   3.157   0.314 -0.1001 -0.1779 -0.8593
 2591SOL     OW 9551   0.353   1.737   0.219  0.4083 -0.7566  0.5238
 2591SOL    HW1 9552   0.362   1.762   0.127 -0.5125  1.1139  0.9263
 2591SOL    HW2 9553   0.259   1.730   0.232  0.5735 -2.3516  1.0027
 2591SOL     MW 9554   0.342   1.739   0.209  0.3116 -0.7213  0.6366
 2592SOL     OW 9555   2.199   4.392   1.388 -0.0045  0.5471 -0.0756
 2592SOL    HW1 9556   2.113   4.435   1.391 -0.3274  0.0335 -1.5843
 2592SOL    HW2 9557   2.227   4.388   1.480 -1.4638  0.9811  0.4010
 2592SOL     MW 9558   2.191   4.397   1.400 -0.2327  0.5369 -0.2078
 2593SOL     OW 9559   0.313   1.796   0.660 -0.3911 -0.1057 -0.0505
 2593SOL    HW1 9560   0.357   1.771   0.741 -1.3421 -2.0120 -0.0883
 2593SOL    HW2 9561   0.301   1.891   0.667  1.4355  0.0668  1.0673
 2593SOL     MW 9562   0.317   1.805   0.671 -0.2790 -0.3276  0.0877
 2594SOL     OW 9563   3.329   4.662   2.624  0.1529  0.0643  0.0599
 2594SOL    HW1 9564   3.347   4.632   2.534  0.7974  0.2409  0.1216
 2594SOL    HW2 9565   3.245   4.622   2.647 -0.9905  1.5984 -1.3400
 2594SOL     MW 9566   3.321   4.653   2.615  0.0892  0.2832 -0.1116
 2595SOL     OW 9567   3.288   0.103   5.269 -0.2660  0.6875 -0.2706
 2595SOL    HW1 9568   3.327   0.073   5.187 -0.5084  0.0921 -0.1703
 2595SOL    HW2 9569   3.337   0.057   5.337 -0.8888  0.2189 -0.1318
 2595SOL     MW 9570   3.300   0.093   5.267 -0.3769  0.5513 -0.2403
 2596SOL     OW 9571   2.907   1.067   0.479 -1.2255  0.0402  0.2990
 2596SOL    HW1 9572   2.952   1.062   0.395 -2.3420 -1.8636 -0.2001
 2596SOL    HW2 9573   2.879   1.158   0.485  0.4280  0.6341 -0.5506
 2596SOL     MW 9574   2.909   1.078   0.469 -1.1566 -0.1274  0.1263
 2597SOL     OW 9575   0.086   0.218   4.558 -0.0536  0.2241  0.1939
 2597SOL    HW1 9576   0.029   0.295   4.547 -0.6152  0.1122  2.0903
 2597SOL    HW2 9577   0.027   0.149   4.589  0.5488 -0.8447 -0.9712
 2597SOL     MW 9578   0.071   0.219   4.561 -0.0484  0.0730  0.2875
 2598SOL     OW 9579   3.768   5.749   5.607  0.7627  0.1516 -0.0443
 2598SOL    HW1 9580   3.688   5.800   5.623 -1.0563 -1.6991 -2.8866
 2598SOL    HW2 9581   3.799   5.726   5.695 -0.0532  3.5114  1.2096
 2598SOL     MW 9582   3.762   5.753   5.621  0.4253  0.3448 -0.2475
 2599SOL     OW 9583   4.254   5.800   0.364  0.6087  0.0189 -0.5438
 2599SOL    HW1 9584   4.311   5.755   0.302  0.9325  0.3169 -0.4603
 2599SOL    HW2 9585   4.166   5.789   0.327  0.7331 -0.3161 -0.7452
 2599SOL     MW 9586   4.250   5.793   0.351  0.6666  0.0143 -0.5589
 2600SOL     OW 9587   1.649   5.871   4.434 -0.2047  0.2224 -0.1790
 2600SOL    HW1 9588   1.718   5.883   4.499 -0.3365 -0.1226  0.0233
 2600SOL    HW2 9589   1.568   5.867   4.485 -0.6532  3.0288 -0.5792
 2600SOL     MW 9590   1.647   5.872   4.449 -0.2788  0.5379 -0.2046
 2601SOL     OW 9591   4.640   4.752   0.476 -0.6946  0.1213  0.1057
 2601SOL    HW1 9592   4.561   4.726   0.524 -1.5664  0.8406 -0.8883
 2601SOL    HW2 9593   4.654   4.843   0.500 -0.0479 -0.0673  0.4374
 2601SOL     MW 9594   4.632   4.760   0.485 -0.7234  0.1893  0.0209
 2602SOL     OW 9595   3.411   2.656   5.448  0.1797 -0.3750 -0.0493
 2602SOL    HW1 9596   3.486   2.633   5.504  0.2736 -1.1427 -0.4829
 2602SOL    HW2 9597   3.334   2.636   5.502  0.2813 -0.0584  0.2136
 2602SOL     MW 9598   3.411   2.650   5.462  0.2050 -0.4325 -0.0715
 2603SOL     OW 9599   5.538   1.649   4.564  0.8030  0.6550 -0.1231
 2603SOL    HW1 9600   5.563   1.613   4.479 -1.4969 -0.2334 -0.4594
 2603SOL    HW2 9601   5.513   1.573   4.616 -1.0564  1.4437  0.2091
 2603SOL     MW 9602   5.538   1.635   4.560  0.2704  0.6423 -0.1235
 2604SOL     OW 9603   3.456   1.160   4.286  1.1065  0.1154  0.1731
 2604SOL    HW1 9604   3.377   1.213   4.298  0.4655 -1.2530  2.1972
 2604SOL    HW2 9605   3.455   1.136   4.194  0.2420  1.7763 -0.2818
 2604SOL     MW 9606   3.446   1.164   4.276  0.9139  0.1527  0.3738
 2605SOL     OW 9607   1.975   1.070   1.120 -0.2272  0.3953 -0.9468
 2605SOL    HW1 9608   1.931   0.985   1.119 -1.1134  0.8392 -0.1406
 2605SOL    HW2 9609   1.907   1.133   1.142  0.4581  1.3061 -1.3781
 2605SOL     MW 9610   1.961   1.067   1.123 -0.2528  0.5689 -0.8987
 2606SOL     OW 9611   5.563   5.684   4.754  0.3591 -0.2343  0.6794
 2606SOL    HW1 9612   5.511   5.729   4.687  1.3026 -0.0283  0.0835
 2606SOL    HW2 9613   5.509   5.610   4.779 -0.0736 -0.2275 -0.2017
 2606SOL     MW 9614   5.549   5.681   4.749  0.4249 -0.2069  0.4902
 2607SOL     OW 9615   0.245   5.497   4.658 -0.0221  0.3740  0.9570
 2607SOL    HW1 9616   0.273   5.471   4.745  0.2460  0.7586  0.9867
 2607SOL    HW2 9617   0.264   5.590   4.653  2.9028 -0.2375 -0.6245
 2607SOL     MW 9618   0.251   5.505   4.668  0.3866  0.3448  0.7582
 2608SOL     OW 9619   4.781   4.771   4.101  0.4703  0.2364 -0.0554
 2608SOL    HW1 9620   4.779   4.723   4.184 -0.4648  0.8826  0.3038
 2608SOL    HW2 9621   4.866   4.748   4.062  1.8959  1.6464  2.0988
 2608SOL     MW 9622   4.792   4.762   4.107  0.5331  0.4997  0.2661
 2609SOL     OW 9623   2.345   1.413   0.460 -0.0800  0.2988 -0.1129
 2609SOL    HW1 9624   2.415   1.368   0.509 -0.1687 -0.1056 -0.3565
 2609SOL    HW2 9625   2.326   1.491   0.513  1.7503  1.3247 -0.9242
 2609SOL     MW 9626   2.352   1.417   0.473  0.1431  0.3785 -0.2480
 2610SOL     OW 9627   5.487   3.505   4.742  0.0904  0.3236  0.1785
 2610SOL    HW1 9628   5.493   3.502   4.646  2.1679  1.2091  0.2555
 2610SOL    HW2 9629   5.498   3.598   4.763  1.0809 -0.0608  1.3606
 2610SOL     MW 9630   5.489   3.517   4.732  0.4830  0.3877  0.3390
 2611SOL     OW 9631   1.558   5.681   4.855  0.0264  0.1556 -0.2093
 2611SOL    HW1 9632   1.504   5.712   4.782 -0.4361  1.1500  0.5444
 2611SOL    HW2 9633   1.648   5.694   4.825 -0.0017 -4.1633 -2.6507
 2611SOL     MW 9634   1.562   5.687   4.841 -0.0365 -0.2699 -0.4253
 2612SOL     OW 9635   5.827   0.351   4.081 -0.3845  0.5820 -0.2936
 2612SOL    HW1 9636   5.843   0.419   4.147  0.9565  0.6300 -0.6652
 2612SOL    HW2 9637   5.834   0.269   4.129  2.6866  0.5301 -0.7726
 2612SOL     MW 9638   5.830   0.349   4.096  0.1807  0.5815 -0.4029
 2613SOL     OW 9639   4.509   2.802   0.062  0.4641  0.3305  0.2470
 2613SOL    HW1 9640   4.561   2.729   0.095  0.6791 -0.1848 -1.1968
 2613SOL    HW2 9641   4.427   2.796   0.110  1.7950  1.3095  2.7396
 2613SOL     MW 9642   4.505   2.792   0.072  0.6623  0.3903  0.3812
 2614SOL     OW 9643   2.023   2.626   1.767 -0.1511 -0.6197  0.4839
 2614SOL    HW1 9644   1.943   2.603   1.815  0.0471  0.6493  1.4341
 2614SOL    HW2 9645   2.068   2.688   1.824  0.3584  0.4934 -1.1058
 2614SOL     MW 9646   2.018   2.631   1.781 -0.0603 -0.3147  0.4020
 2615SOL     OW 9647   4.876   5.132   2.220  0.0162 -0.3269 -0.1892
 2615SOL    HW1 9648   4.847   5.114   2.309  1.1129  0.8953  0.4467
 2615SOL    HW2 9649   4.966   5.100   2.218 -0.6102 -2.0542 -1.4440
 2615SOL     MW 9650   4.884   5.126   2.231  0.0768 -0.3915 -0.2685
 2616SOL     OW 9651   4.197   5.595   5.590  0.0556  0.1916 -0.2540
 2616SOL    HW1 9652   4.173   5.664   5.528  0.0530  1.0072  0.6465
 2616SOL    HW2 9653   4.130   5.600   5.658  0.3008 -0.4156  0.0353
 2616SOL     MW 9654   4.185   5.605   5.591  0.0868  0.2179 -0.1011
 2617SOL     OW 9655   5.964   5.022   5.576  0.0243 -0.0057 -0.4864
 2617SOL    HW1 9656   6.048   5.067   5.585  0.6777 -1.1974 -0.5367
 2617SOL    HW2 9657   5.927   5.024   5.664  0.1348  0.4391 -0.4447
 2617SOL     MW 9658   5.970   5.028   5.588  0.1221 -0.1011 -0.4878
 2618SOL     OW 9659   3.250   5.673   4.251  0.0553 -0.1394  0.3681
 2618SOL    HW1 9660   3.174   5.646   4.303 -1.5242  0.2312 -1.6758
 2618SOL    HW2 9661   3.273   5.759   4.286 -0.9135  0.0595  0.5335
 2618SOL     MW 9662   3.243   5.681   4.262 -0.2708 -0.0663  0.1283
 2619SOL     OW 9663   2.362   2.799   1.004 -0.1038 -0.1852 -0.6152
 2619SOL    HW1 9664   2.382   2.893   0.999  0.2820 -0.1713  1.0857
 2619SOL    HW2 9665   2.322   2.788   1.090 -1.1052 -1.4096 -1.2391
 2619SOL     MW 9666   2.360   2.810   1.014 -0.1826 -0.3402 -0.4773
 2620SOL     OW 9667   3.822   2.340   3.468 -0.8173 -0.8111 -0.2994
 2620SOL    HW1 9668   3.784   2.338   3.381 -0.4746  1.7555 -0.5674
 2620SOL    HW2 9669   3.758   2.388   3.521 -0.3135 -0.9720  0.4684
 2620SOL     MW 9670   3.809   2.346   3.464 -0.7088 -0.5031 -0.2353
 2621SOL     OW 9671   1.951   2.611   4.311  0.0967  0.2010 -0.4691
 2621SOL    HW1 9672   1.904   2.694   4.316 -0.1924  0.1593 -2.1356
 2621SOL    HW2 9673   1.973   2.602   4.219  0.7760 -1.2166 -0.1728
 2621SOL     MW 9674   1.948   2.620   4.300  0.1465  0.0143 -0.6442
 2622SOL     OW 9675   3.335   3.630   4.957  0.0817  0.2036  0.1561
 2622SOL    HW1 9676   3.308   3.539   4.972  1.9003 -0.2532  0.6908
 2622SOL    HW2 9677   3.257   3.671   4.919 -0.6291 -1.6622 -0.4738
 2622SOL     MW 9678   3.321   3.624   4.954  0.2239 -0.0935  0.1435
 2623SOL     OW 9679   5.155   0.662   3.969 -0.4541 -0.2692  0.6102
 2623SOL    HW1 9680   5.115   0.636   3.886 -1.0353 -1.4834  1.2638
 2623SOL    HW2 9681   5.185   0.752   3.953 -1.0775 -0.2781 -0.7253
 2623SOL     MW 9682   5.154   0.671   3.956 -0.6084 -0.4258  0.5229
 2624SOL     OW 9683   5.678   5.636   0.728  0.0931  0.2673  0.0927
 2624SOL    HW1 9684   5.614   5.668   0.665  0.5932 -1.0234 -1.0989
 2624SOL    HW2 9685   5.657   5.544   0.740 -0.8086  0.7871  2.8461
 2624SOL     MW 9686   5.667   5.629   0.721  0.0420  0.1688  0.2926
 2625SOL     OW 9687   0.284   1.276   5.380  0.0580 -0.0347  0.3664
 2625SOL    HW1 9688   0.292   1.191   5.337 -2.2916  1.2666 -2.8810
 2625SOL    HW2 9689   0.362   1.324   5.353  0.5180 -0.5645  0.7537
 2625SOL     MW 9690   0.295   1.272   5.371 -0.1839  0.0641  0.0000
 2626SOL     OW 9691   1.161   0.226   5.744 -0.0303  0.7806  0.0829
 2626SOL    HW1 9692   1.216   0.196   5.672  0.1001  0.0047  0.4966
 2626SOL    HW2 9693   1.172   0.321   5.744  1.0302  0.6697 -0.0674
 2626SOL     MW 9694   1.170   0.234   5.735  0.1222  0.6671  0.1163
 2627SOL     OW 9695   2.143   5.358   0.937 -0.1328  0.4444 -0.1915
 2627SOL    HW1 9696   2.055   5.394   0.924 -0.2348 -0.1335 -1.1123
 2627SOL    HW2 9697   2.201   5.422   0.895 -0.1734  0.3985 -0.3154
 2627SOL     MW 9698   2.139   5.371   0.930 -0.1507  0.3648 -0.3253
 2628SOL     OW 9699   2.298   3.088   5.634  0.6379 -0.3927  0.3367
 2628SOL    HW1 9700   2.229   3.136   5.680  1.0523  0.8514 -0.2913
 2628SOL    HW2 9701   2.374   3.093   5.692  0.3544 -1.2548  0.7714
 2628SOL     MW 9702   2.299   3.095   5.647  0.6547 -0.3438  0.3123
 2629SOL     OW 9703   4.577   5.770   1.542  0.2619  0.7017  0.3216
 2629SOL    HW1 9704   4.484   5.770   1.567 -0.1036 -3.3954 -0.6020
 2629SOL    HW2 9705   4.576   5.759   1.447  1.7035  0.1018  0.3651
 2629SOL     MW 9706   4.565   5.768   1.533  0.4001  0.1001  0.2089
 2630SOL     OW 9707   4.289   2.072   4.963 -0.2548 -0.0129  0.1484
 2630SOL    HW1 9708   4.237   2.019   4.903  0.1747  1.0605 -1.1912
 2630SOL    HW2 9709   4.228   2.140   4.993 -0.6315 -0.8757  1.3927
 2630SOL     MW 9710   4.274   2.074   4.959 -0.2480  0.0141  0.1369
 2631SOL     OW 9711   5.044   4.134   3.963 -0.0464  0.0463  0.0018
 2631SOL    HW1 9712   5.095   4.178   4.031 -0.3619  0.9095 -0.3104
 2631SOL    HW2 9713   5.079   4.168   3.880 -1.3194  0.8768 -0.2082
 2631SOL     MW 9714   5.055   4.144   3.961 -0.2503  0.2637 -0.0646
 2632SOL     OW 9715   2.213   5.340   3.843  0.4287  0.1922 -0.1690
 2632SOL    HW1 9716   2.278   5.296   3.788 -1.7811 -2.7404 -0.5376
 2632SOL    HW2 9717   2.129   5.324   3.799 -0.6118  3.6259  0.4615
 2632SOL     MW 9718   2.210   5.332   3.830  0.0124  0.2565 -0.1357
 2633SOL     OW 9719   5.485   1.839   0.245  0.2691 -0.2985 -0.6664
 2633SOL    HW1 9720   5.488   1.773   0.314 -1.7185  0.8941  0.6462
 2633SOL    HW2 9721   5.571   1.881   0.248 -0.5090  1.3124  2.7869
 2633SOL     MW 9722   5.496   1.836   0.254 -0.0849  0.0602 -0.0563
 2634SOL     OW 9723   1.303   4.954   5.661  0.2023  0.1446 -0.1317
 2634SOL    HW1 9724   1.262   4.967   5.746  1.3566 -0.4981  0.5360
 2634SOL    HW2 9725   1.327   5.042   5.632  1.1416  0.2362  0.8944
 2634SOL     MW 9726   1.301   4.967   5.668  0.4703  0.0739  0.0849
 2635SOL     OW 9727   3.391   2.973   2.592 -0.7018 -0.1165  0.0681
 2635SOL    HW1 9728   3.393   3.007   2.682 -2.0652 -0.6599  0.3149
 2635SOL    HW2 9729   3.442   2.892   2.596 -2.6710 -1.3580  0.8900
 2635SOL     MW 9730   3.398   2.967   2.604 -1.1282 -0.3450  0.2048
 2636SOL     OW 9731   5.742   5.937   4.070  0.4835 -0.1052 -0.3425
 2636SOL    HW1 9732   5.743   6.032   4.064 -0.7046 -0.1325 -1.2602
 2636SOL    HW2 9733   5.744   5.907   3.979  1.4368 -0.9681 -0.0448
 2636SOL     MW 9734   5.743   5.945   4.058  0.4535 -0.2193 -0.4220
 2637SOL     OW 9735   2.015   1.098   5.274  0.1138 -0.1073 -0.1235
 2637SOL    HW1 9736   2.074   1.029   5.306 -0.6422 -0.5674  0.2756
 2637SOL    HW2 9737   1.985   1.142   5.354 -1.3468 -0.9049 -0.2263
 2637SOL     MW 9738   2.019   1.095   5.289 -0.1698 -0.2683 -0.0858
 2638SOL     OW 9739   5.053   1.586   4.524 -0.3580  0.4962  0.1583
 2638SOL    HW1 9740   5.087   1.563   4.438  1.0122 -0.4324  0.9224
 2638SOL    HW2 9741   5.130   1.613   4.574 -1.0047  0.0958  1.3891
 2638SOL     MW 9742   5.067   1.587   4.519 -0.2651  0.3262  0.4134
 2639SOL     OW 9743   1.299   1.627   3.510  0.1682  0.2986 -0.5406
 2639SOL    HW1 9744   1.387   1.590   3.515 -0.2542 -0.6783 -0.1674
 2639SOL    HW2 9745   1.283   1.663   3.598  0.3756  0.9162 -0.7502
 2639SOL     MW 9746   1.308   1.627   3.522  0.1407  0.2526 -0.5198
 2640SOL     OW 9747   0.658   4.525   0.718 -0.0759 -0.4645 -0.5060
 2640SOL    HW1 9748   0.658   4.610   0.762  0.4314 -0.2353 -0.9359
 2640SOL    HW2 9749   0.622   4.543   0.632 -2.9521 -1.2824  0.4591
 2640SOL     MW 9750   0.654   4.539   0.713 -0.3791 -0.5403 -0.4375
 2641SOL     OW 9751   3.916   2.289   5.055  0.0502 -0.3303  0.3710
 2641SOL    HW1 9752   3.824   2.296   5.026 -0.0941 -1.9697  0.3735
 2641SOL    HW2 9753   3.918   2.335   5.138 -1.2048 -1.7984  1.2441
 2641SOL     MW 9754   3.904   2.296   5.062 -0.1287 -0.7279  0.4830
 2642SOL     OW 9755   3.255   3.951   3.983 -0.1320  0.3965  0.7604
 2642SOL    HW1 9756   3.313   3.933   4.058  0.7827 -1.2141 -0.2991
 2642SOL    HW2 9757   3.170   3.971   4.023  0.0146 -1.6889  2.1997
 2642SOL     MW 9758   3.252   3.951   3.998  0.0041 -0.0765  0.8090
 2643SOL     OW 9759   2.947   3.126   3.177  0.4182  0.5435 -0.5764
 2643SOL    HW1 9760   2.956   3.222   3.179  1.7069  0.4278 -0.1132
 2643SOL    HW2 9761   3.029   3.094   3.216 -1.3208 -0.6994  2.1751
 2643SOL     MW 9762   2.959   3.134   3.182  0.3605  0.3695 -0.1652
 2644SOL     OW 9763   3.369   5.038   1.761 -0.5755 -0.5727 -0.4178
 2644SOL    HW1 9764   3.420   4.994   1.693 -0.7355 -0.5372 -0.5585
 2644SOL    HW2 9765   3.280   5.007   1.749 -0.5040 -1.0088  0.1348
 2644SOL     MW 9766   3.364   5.028   1.751 -0.5867 -0.6237 -0.3650
 2645SOL     OW 9767   5.314   4.939   3.845 -0.4421 -0.2148  0.4470
 2645SOL    HW1 9768   5.312   5.027   3.807  0.5708 -0.4813 -0.2482
 2645SOL    HW2 9769   5.228   4.929   3.885 -1.0376  0.6123 -0.5794
 2645SOL     MW 9770   5.303   4.949   3.845 -0.3891 -0.1431  0.2267
 2646SOL     OW 9771   2.024   2.904   3.150 -0.5212 -0.1427 -0.0674
 2646SOL    HW1 9772   2.011   2.901   3.245  0.7135  1.7011  0.1911
 2646SOL    HW2 9773   1.936   2.908   3.113 -0.9666  1.3551  1.1166
 2646SOL     MW 9774   2.011   2.904   3.157 -0.4203  0.2849  0.1173
 2647SOL     OW 9775   1.940   1.631   5.532  0.7597 -0.0284  0.6653
 2647SOL    HW1 9776   1.899   1.595   5.610 -1.5760  1.1266  0.0384
 2647SOL    HW2 9777   1.966   1.555   5.480  0.7662 -0.7830  1.7592
 2647SOL     MW 9778   1.938   1.617   5.535  0.4616  0.0228  0.7248
 2648SOL     OW 9779   3.916   2.060   3.354  0.3346 -0.0205 -0.3115
 2648SOL    HW1 9780   3.869   1.999   3.297  0.1641 -0.7037  0.5550
 2648SOL    HW2 9781   3.846   2.112   3.396  0.4227 -0.0662 -0.1083
 2648SOL     MW 9782   3.901   2.059   3.352  0.3242 -0.1140 -0.1743
 2649SOL     OW 9783   1.283   0.473   5.030 -0.0472  0.0465 -0.3739
 2649SOL    HW1 9784   1.344   0.433   5.091  0.9542  0.6375 -0.9741
 2649SOL    HW2 9785   1.229   0.530   5.084  0.7584  0.4748 -0.0166
 2649SOL     MW 9786   1.284   0.475   5.045  0.1841  0.1770 -0.4048
 2650SOL     OW 9787   2.193   4.505   3.857  0.7944  0.1578 -0.3448
 2650SOL    HW1 9788   2.192   4.498   3.952  1.3698 -1.3784 -0.4437
 2650SOL    HW2 9789   2.286   4.516   3.834  0.9054 -1.7122 -0.8673
 2650SOL     MW 9790   2.205   4.506   3.866  0.8824 -0.2780 -0.4244
 2651SOL     OW 9791   1.828   1.841   2.895  0.5888  0.2994  0.3300
 2651SOL    HW1 9792   1.858   1.884   2.975  1.7401 -1.6888  1.0259
 2651SOL    HW2 9793   1.795   1.756   2.926 -0.0987  0.0054 -1.1847
 2651SOL     MW 9794   1.827   1.835   2.909  0.6483  0.0073  0.2251
 2652SOL     OW 9795   4.198   4.481   2.935 -0.0960 -0.1711  0.2225
 2652SOL    HW1 9796   4.158   4.522   2.859 -0.0283 -1.3384 -0.4560
 2652SOL    HW2 9797   4.292   4.499   2.925 -0.2911  1.4670  1.1433
 2652SOL     MW 9798   4.205   4.489   2.924 -0.1125 -0.1106  0.2534
 2653SOL     OW 9799   1.588   3.015   0.046  0.2292 -0.1778 -0.1056
 2653SOL    HW1 9800   1.599   3.100   0.090 -1.1870 -0.3612  0.6353
 2653SOL    HW2 9801   1.656   2.960   0.085 -0.0615  0.0882  0.8032
 2653SOL     MW 9802   1.599   3.019   0.057  0.0106 -0.1671  0.1056
 2654SOL     OW 9803   2.305   5.949   5.466  0.1853  0.4007  0.8390
 2654SOL    HW1 9804   2.228   5.892   5.469 -1.0017  1.7976 -1.2209
 2654SOL    HW2 9805   2.300   5.989   5.379  3.8549 -0.2946  0.2458
 2654SOL     MW 9806   2.294   5.946   5.455  0.5031  0.4902  0.4997
 2655SOL     OW 9807   1.967   3.801   0.901  0.1404  0.2660 -0.1654
 2655SOL    HW1 9808   1.984   3.733   0.966  0.6583  0.6712  0.1245
 2655SOL    HW2 9809   1.934   3.753   0.825  1.3307 -0.4130 -0.2755
 2655SOL     MW 9810   1.965   3.786   0.900  0.3591  0.2310 -0.1423
 2656SOL     OW 9811   5.355   5.127   2.780  0.6389 -0.7868  0.1608
 2656SOL    HW1 9812   5.409   5.198   2.815  2.4560 -2.8434  1.7288
 2656SOL    HW2 9813   5.329   5.157   2.693  3.2048  0.8533 -0.1023
 2656SOL     MW 9814   5.359   5.140   2.774  1.2002 -0.8402  0.3278
 2657SOL     OW 9815   0.405   3.149   2.914 -0.1309  0.0504 -0.0256
 2657SOL    HW1 9816   0.326   3.142   2.968 -0.0438 -1.8908 -0.0873
 2657SOL    HW2 9817   0.475   3.164   2.976 -0.1529 -1.2924  0.3431
 2657SOL     MW 9818   0.404   3.150   2.929 -0.1226 -0.3700  0.0136
 2658SOL     OW 9819   4.594   1.669   2.446 -0.2857 -0.8057  0.2024
 2658SOL    HW1 9820   4.564   1.728   2.515  1.6916  0.7871 -0.2675
 2658SOL    HW2 9821   4.516   1.654   2.393 -1.0175  0.7305  0.8007
 2658SOL     MW 9822   4.580   1.675   2.448 -0.1264 -0.4051  0.2189
 2659SOL     OW 9823   4.113   3.081   1.781 -0.2825  0.0591  0.5612
 2659SOL    HW1 9824   4.207   3.088   1.765 -0.1662  2.3009  1.9491
 2659SOL    HW2 9825   4.100   2.992   1.812  1.0827 -0.8644 -1.3856
 2659SOL     MW 9826   4.124   3.071   1.783 -0.0930  0.2279  0.4896
 2660SOL     OW 9827   4.308   5.119   4.679  0.4079 -0.0800  0.8348
 2660SOL    HW1 9828   4.264   5.051   4.627 -0.8830  0.0295  1.7527
 2660SOL    HW2 9829   4.256   5.198   4.664  1.5297  0.5629  0.2896
 2660SOL     MW 9830   4.295   5.120   4.670  0.3867  0.0167  0.8821
 2661SOL     OW 9831   4.835   3.844   2.495 -0.5824 -0.6516  0.1163
 2661SOL    HW1 9832   4.756   3.838   2.441 -0.0115  3.6749 -1.3916
 2661SOL    HW2 9833   4.902   3.798   2.445 -1.4385 -1.9030  0.0843
 2661SOL     MW 9834   4.833   3.837   2.482 -0.6189 -0.2577 -0.0808
 2662SOL     OW 9835   0.528   4.881   1.523  0.1587 -0.3684  0.1902
 2662SOL    HW1 9836   0.556   4.852   1.436  1.0550 -1.3991  0.7957
 2662SOL    HW2 9837   0.544   4.805   1.580  0.1684  0.4902  1.3642
 2662SOL     MW 9838   0.534   4.867   1.519  0.2747 -0.3901  0.4179
 2663SOL     OW 9839   0.804   1.234   4.800 -0.0806  0.0072 -0.7709
 2663SOL    HW1 9840   0.863   1.310   4.795 -0.0691 -0.1018 -2.3100
 2663SOL    HW2 9841   0.746   1.255   4.874 -0.4212  1.7717 -1.5042
 2663SOL     MW 9842   0.804   1.247   4.809 -0.1227  0.2191 -1.0614
 2664SOL     OW 9843   4.436   2.485   4.420  0.0263 -0.1488  0.1137
 2664SOL    HW1 9844   4.473   2.426   4.486 -0.8557 -2.2242 -1.1879
 2664SOL    HW2 9845   4.512   2.509   4.366  0.5489  0.6511  1.1822
 2664SOL     MW 9846   4.451   2.481   4.421 -0.0200 -0.3119  0.0839
 2665SOL     OW 9847   1.242   2.538   0.147  0.3143  0.0421 -0.0568
 2665SOL    HW1 9848   1.331   2.572   0.160 -0.5745  1.8782  1.2365
 2665SOL    HW2 9849   1.202   2.598   0.084 -0.3871 -0.1563  0.1992
 2665SOL     MW 9850   1.249   2.550   0.140  0.1109  0.2518  0.1416
 2666SOL     OW 9851   3.175   5.891   5.593 -0.1637  0.1558 -0.4562
 2666SOL    HW1 9852   3.213   5.885   5.680  1.5677 -2.0743 -1.3200
 2666SOL    HW2 9853   3.081   5.884   5.607  0.0609  0.4104  1.2721
 2666SOL     MW 9854   3.168   5.890   5.606  0.0868 -0.0973 -0.3457
 2667SOL     OW 9855   5.651   1.509   1.619  0.6296  0.5157 -0.4175
 2667SOL    HW1 9856   5.556   1.503   1.610  0.5280 -0.6104  1.1353
 2667SOL    HW2 9857   5.686   1.481   1.535 -0.3491 -3.3440  0.3706
 2667SOL     MW 9858   5.644   1.505   1.607  0.4907 -0.1225 -0.1178
 2668SOL     OW 9859   0.570   0.766   2.068  0.5528  0.0278 -0.3665
 2668SOL    HW1 9860   0.521   0.809   2.138 -0.4406  0.2102 -1.1630
 2668SOL    HW2 9861   0.642   0.722   2.113 -1.4999 -1.9927  1.0527
 2668SOL     MW 9862   0.573   0.766   2.083  0.1629 -0.2075 -0.2868
 2669SOL     OW 9863   3.724   2.374   5.417 -0.0306 -0.4436  0.4594
 2669SOL    HW1 9864   3.706   2.291   5.462  3.4825 -1.3951  0.2709
 2669SOL    HW2 9865   3.740   2.436   5.488  0.2872 -0.6677  0.5868
 2669SOL     MW 9866   3.724   2.371   5.432  0.4599 -0.5939  0.4520
 2670SOL     OW 9867   1.406   3.381   2.117  0.4495  0.6549 -0.3527
 2670SOL    HW1 9868   1.442   3.462   2.082  0.2738  1.6261  1.6346
 2670SOL    HW2 9869   1.481   3.323   2.125  0.5412  0.5280 -1.9883
 2670SOL     MW 9870   1.420   3.384   2.114  0.4388  0.7632 -0.3076
 2671SOL     OW 9871   0.643   1.372   4.973 -0.2264  0.3720  0.0130
 2671SOL    HW1 9872   0.646   1.466   4.960 -1.9755  0.7721  2.2703
 2671SOL    HW2 9873   0.656   1.360   5.067 -1.3685 -1.5489 -0.0420
 2671SOL     MW 9874   0.645   1.382   4.983 -0.5965  0.1774  0.2952
 2672SOL     OW 9875   2.013   3.569   1.038  0.6560 -0.2319  0.2338
 2672SOL    HW1 9876   1.993   3.507   1.108  1.7740 -0.7637  0.0987
 2672SOL    HW2 9877   2.033   3.514   0.962 -2.0665  0.3521 -0.9512
 2672SOL     MW 9878   2.013   3.554   1.037  0.4511 -0.2251  0.0650
 2673SOL     OW 9879   2.211   4.740   4.806 -0.5237  0.2223  0.0238
 2673SOL    HW1 9880   2.205   4.762   4.899 -2.6084  1.8720 -0.4513
 2673SOL    HW2 9881   2.303   4.750   4.785  0.0318 -0.4593  1.9729
 2673SOL     MW 9882   2.222   4.744   4.815 -0.7193  0.3462  0.2127
 2674SOL     OW 9883   1.035   2.890   5.580  0.0652  0.2552 -0.4163
 2674SOL    HW1 9884   1.064   2.801   5.599 -0.5994  0.0338 -0.4351
 2674SOL    HW2 9885   1.107   2.945   5.610  0.6318 -0.3039 -0.7131
 2674SOL     MW 9886   1.048   2.885   5.586  0.0526  0.1552 -0.4568
 2675SOL     OW 9887   2.732   5.808   4.741  0.3810 -0.4963 -0.0711
 2675SOL    HW1 9888   2.702   5.779   4.827  2.0910  1.3700  1.1826
 2675SOL    HW2 9889   2.678   5.885   4.722 -0.4950 -1.3235 -1.0274
 2675SOL     MW 9890   2.721   5.814   4.749  0.4876 -0.3638 -0.0324
 2676SOL     OW 9891   1.907   1.278   2.964  0.2431 -0.1335  0.4761
 2676SOL    HW1 9892   1.991   1.293   3.007  0.1308 -0.4341  0.8116
 2676SOL    HW2 9893   1.908   1.186   2.940  0.1691 -0.0442  0.1287
 2676SOL     MW 9894   1.918   1.268   2.967  0.2192 -0.1606  0.4745
 2677SOL     OW 9895   2.362   2.147   1.713 -0.4697  0.0379  0.7168
 2677SOL    HW1 9896   2.303   2.120   1.783  1.0501 -0.1324  1.9460
 2677SOL    HW2 9897   2.449   2.120   1.742  0.1327 -0.4021 -1.4270
 2677SOL     MW 9898   2.365   2.140   1.726 -0.1981 -0.0403  0.5997
 2678SOL     OW 9899   4.345   0.199   3.258  0.3302  0.1333  0.4002
 2678SOL    HW1 9900   4.271   0.251   3.225  0.0094  1.8126  3.5347
 2678SOL    HW2 9901   4.322   0.109   3.237 -1.4503  0.8219 -0.7894
 2678SOL     MW 9902   4.333   0.194   3.251  0.0615  0.4364  0.6490
 2679SOL     OW 9903   2.294   4.046   0.432 -0.2939  0.0276  0.3054
 2679SOL    HW1 9904   2.345   3.979   0.388  0.3526  0.0824  0.9473
 2679SOL    HW2 9905   2.304   4.124   0.377  0.9241  0.2361  0.7956
 2679SOL     MW 9906   2.302   4.047   0.420 -0.0553  0.0610  0.4503
 2680SOL     OW 9907   2.152   0.890   0.477 -0.3129  0.3826  0.6932
 2680SOL    HW1 9908   2.229   0.861   0.427 -0.0920  1.0684  0.6322
 2680SOL    HW2 9909   2.188   0.922   0.560 -0.2762  2.8818 -0.2381
 2680SOL     MW 9910   2.167   0.891   0.481 -0.2799  0.7903  0.5662
 2681SOL     OW 9911   0.813   3.938   1.866 -0.1778 -0.4283 -0.2248
 2681SOL    HW1 9912   0.810   3.871   1.934  0.7711  0.5738  0.8131
 2681SOL    HW2 9913   0.905   3.944   1.842 -0.1991  0.7762 -0.0392
 2681SOL     MW 9914   0.824   3.930   1.872 -0.0591 -0.1457 -0.0682
 2682SOL     OW 9915   3.760   1.260   1.249  0.5684 -0.7371 -0.3178
 2682SOL    HW1 9916   3.725   1.348   1.263  0.3436 -0.8782  0.0092
 2682SOL    HW2 9917   3.785   1.258   1.156  0.8946 -0.2154 -0.2417
 2682SOL     MW 9918   3.759   1.271   1.239  0.5815 -0.6883 -0.2662
 2683SOL     OW 9919   4.260   4.182   5.292 -0.0563  1.0020  0.3113
 2683SOL    HW1 9920   4.311   4.119   5.240 -0.6798  0.2446  0.6003
 2683SOL    HW2 9921   4.317   4.205   5.364  0.9026  2.2270 -0.8247
 2683SOL     MW 9922   4.274   4.177   5.294 -0.0138  1.0619  0.2027
 2684SOL     OW 9923   1.567   1.239   1.709 -0.2559  0.5932 -0.0994
 2684SOL    HW1 9924   1.581   1.325   1.748  1.5023 -0.0423  0.6936
 2684SOL    HW2 9925   1.499   1.254   1.643 -1.6505  2.1179  1.6262
 2684SOL     MW 9926   1.560   1.252   1.706 -0.2095  0.7069  0.2230
 2685SOL     OW 9927   1.178   0.958   5.029  0.1908  0.9548  0.3420
 2685SOL    HW1 9928   1.086   0.982   5.024  0.5137  2.4584  1.3469
 2685SOL    HW2 9929   1.217   0.998   4.951 -0.2542 -0.8731 -0.8342
 2685SOL     MW 9930   1.172   0.966   5.018  0.1751  0.9133  0.3200
 2686SOL     OW 9931   0.175   4.992   3.128  0.6399  0.3075 -0.6927
 2686SOL    HW1 9932   0.100   5.021   3.179 -0.6733 -1.5119 -1.5292
 2686SOL    HW2 9933   0.159   5.027   3.040 -0.1540 -1.5106 -1.3087
 2686SOL     MW 9934   0.163   5.000   3.123  0.3702 -0.1583 -0.8783
 2687SOL     OW 9935   1.598   4.789   4.100  0.0652 -0.0439 -0.6056
 2687SOL    HW1 9936   1.689   4.804   4.128 -0.5425  1.0122  0.8267
 2687SOL    HW2 9937   1.587   4.695   4.106  0.6662 -0.0558  0.4770
 2687SOL     MW 9938   1.608   4.779   4.104  0.0643  0.0892 -0.2842
 2688SOL     OW 9939   0.076   5.978   3.842  0.1541 -0.3400  0.2011
 2688SOL    HW1 9940   0.137   5.921   3.795  1.0731 -0.4473  1.4767
 2688SOL    HW2 9941   0.075   5.943   3.931 -0.7984  0.4408  0.5057
 2688SOL     MW 9942   0.084   5.966   3.847  0.1498 -0.2542  0.4034
 2689SOL     OW 9943   5.878   0.991   0.399 -0.5247  0.2073 -0.5612
 2689SOL    HW1 9944   5.948   1.031   0.348 -0.4660  1.4495  0.4891
 2689SOL    HW2 9945   5.831   0.937   0.335 -0.1363  1.3347 -1.8347
 2689SOL     MW 9946   5.881   0.989   0.384 -0.4673  0.5107 -0.5898
 2690SOL     OW 9947   4.779   0.866   3.828 -0.0189  0.2789  0.0749
 2690SOL    HW1 9948   4.826   0.854   3.745 -0.5686 -0.6500 -0.1110
 2690SOL    HW2 9949   4.837   0.922   3.880  0.7661  0.0997 -0.5866
 2690SOL     MW 9950   4.793   0.872   3.824  0.0114  0.1371 -0.0336
 2691SOL     OW 9951   5.722   0.571   3.886  0.0560 -0.1404  0.2451
 2691SOL    HW1 9952   5.671   0.647   3.858  0.0121 -0.0852  0.4801
 2691SOL    HW2 9953   5.796   0.569   3.825  0.0395  0.0688  0.2166
 2691SOL     MW 9954   5.725   0.580   3.874  0.0482 -0.1065  0.2716
 2692SOL     OW 9955   0.403   4.868   1.790  0.0702 -0.6292 -0.1352
 2692SOL    HW1 9956   0.426   4.920   1.712 -0.1434  0.1605  0.3224
 2692SOL    HW2 9957   0.326   4.912   1.826  0.4969 -0.6697  0.8383
 2692SOL     MW 9958   0.396   4.881   1.784  0.0975 -0.5336  0.0479
 2693SOL     OW 9959   3.674   0.890   0.462  0.5603  1.1950  0.2428
 2693SOL    HW1 9960   3.652   0.901   0.370  1.2285  1.7048  0.1469
 2693SOL    HW2 9961   3.616   0.950   0.508 -0.0407  0.6636  0.1911
 2693SOL     MW 9962   3.663   0.899   0.456  0.5691  1.1923  0.2239
 2694SOL     OW 9963   5.302   1.742   2.721 -0.2883 -0.5055  0.7262
 2694SOL    HW1 9964   5.230   1.695   2.764 -1.3477  1.1425  0.7741
 2694SOL    HW2 9965   5.265   1.827   2.697  1.4645  0.1246  0.1729
 2694SOL     MW 9966   5.288   1.747   2.723 -0.1993 -0.2139  0.6614
 2695SOL     OW 9967   2.425   1.848   3.999  0.5763  0.3739 -0.2214
 2695SOL    HW1 9968   2.479   1.770   4.002  0.9994  0.6542 -0.5125
 2695SOL    HW2 9969   2.438   1.884   3.911  0.5630  0.8938 -0.0155
 2695SOL     MW 9970   2.433   1.843   3.988  0.6287  0.4764 -0.2322
 2696SOL     OW 9971   0.758   1.189   3.477 -0.0105  0.3273 -0.1300
 2696SOL    HW1 9972   0.775   1.118   3.538 -2.4788 -0.9995 -0.9043
 2696SOL    HW2 9973   0.818   1.172   3.404  0.0553 -0.4419  0.0961
 2696SOL     MW 9974   0.768   1.178   3.475 -0.3181  0.0590 -0.2003
 2697SOL     OW 9975   3.444   2.176   4.941 -0.0273  0.2144  0.4124
 2697SOL    HW1 9976   3.378   2.164   4.873  0.7888 -1.5280 -0.1052
 2697SOL    HW2 9977   3.396   2.208   5.017 -1.0364  1.6502 -0.7935
 2697SOL     MW 9978   3.430   2.179   4.942 -0.0520  0.1755  0.1917
 2698SOL     OW 9979   4.308   4.943   1.122 -0.0565 -0.5855  0.3707
 2698SOL    HW1 9980   4.345   4.897   1.048 -2.0957 -2.0188  0.1882
 2698SOL    HW2 9981   4.289   5.031   1.089  1.4507 -0.4123 -0.0409
 2698SOL     MW 9982   4.310   4.949   1.109 -0.1249 -0.7467  0.2946
 2699SOL     OW 9983   0.776   5.532   0.828 -0.6331 -0.2579 -0.2540
 2699SOL    HW1 9984   0.836   5.509   0.899 -0.9910 -2.2384 -0.5509
 2699SOL    HW2 9985   0.699   5.477   0.843 -0.2544 -1.5799 -2.7972
 2699SOL     MW 9986   0.774   5.522   0.839 -0.6305 -0.6809 -0.6175
 2700SOL     OW 9987   5.188   2.246   2.799 -0.0587  0.9288  0.0189
 2700SOL    HW1 9988   5.251   2.283   2.737 -0.4209  0.2772 -0.7339
 2700SOL    HW2 9989   5.162   2.162   2.761  0.5295  0.0105  1.5589
 2700SOL     MW 9990   5.193   2.240   2.786 -0.0300  0.7279  0.1199
 2701SOL     OW 9991   0.392   2.575   3.313  0.0615 -0.1844 -0.0901
 2701SOL    HW1 9992   0.347   2.535   3.238 -1.4616 -0.7962  1.1220
 2701SOL    HW2 9993   0.403   2.667   3.289 -2.1423  0.0375 -0.2769
 2701SOL     MW 9994   0.388   2.582   3.300 -0.4156 -0.2344  0.0412
 2702SOL     OW 9995   0.615   5.425   4.681  0.0226 -0.3108  0.8448
 2702SOL    HW1 9996   0.598   5.337   4.714 -1.4416  0.1164  1.2898
 2702SOL    HW2 9997   0.639   5.475   4.759  2.9968 -0.8063  0.2769
 2702SOL     MW 9998   0.616   5.420   4.695  0.2159 -0.3195  0.8292
 2703SOL     OW 9999   3.529   0.609   0.211  0.0014 -0.4246  0.4007
 2703SOL    HW110000   3.477   0.614   0.131  0.5135 -1.3186 -0.0024
 2703SOL    HW210001   3.465   0.603   0.281 -0.4587  0.7849  0.0977
 2703SOL     MW10002   3.514   0.609   0.210  0.0081 -0.3842  0.3103
 2704SOL     OW10003   1.293   0.833   5.242  0.2365  0.0484 -0.2523
 2704SOL    HW110004   1.264   0.858   5.154  4.0984  2.0572 -1.0438
 2704SOL    HW210005   1.387   0.816   5.233  0.7358  0.3353  3.5063
 2704SOL     MW10006   1.301   0.834   5.229  0.7946  0.3424  0.1273
 2705SOL     OW10007   5.943   5.127   3.265 -0.3901  0.6046 -0.4862
 2705SOL    HW110008   5.900   5.048   3.233  0.2940  0.2558 -0.5311
 2705SOL    HW210009   5.881   5.163   3.329  0.5388 -1.5244  1.6953
 2705SOL     MW10010   5.929   5.121   3.269 -0.1841  0.2880 -0.2124
 2706SOL     OW10011   1.408   2.633   3.453 -0.3972 -0.3605  0.2174
 2706SOL    HW110012   1.448   2.546   3.456  0.5767 -0.0141 -1.9283
 2706SOL    HW210013   1.314   2.617   3.456 -0.2028 -1.4224  0.8687
 2706SOL     MW10014   1.401   2.620   3.454 -0.2476 -0.4520  0.0262
 2707SOL     OW10015   4.372   2.299   1.354 -0.1623 -0.1502 -0.2101
 2707SOL    HW110016   4.319   2.320   1.277 -2.1589 -0.1706  1.1000
 2707SOL    HW210017   4.331   2.220   1.390  0.0224  0.4959  1.4774
 2707SOL     MW10018   4.360   2.292   1.349 -0.3943 -0.0701  0.1737
 2708SOL     OW10019   2.700   1.077   5.763 -0.6681 -0.0381 -0.1274
 2708SOL    HW110020   2.699   1.109   5.854 -0.4081  0.3745 -0.2646
 2708SOL    HW210021   2.766   1.008   5.763 -0.0457  0.5427 -0.1835
 2708SOL     MW10022   2.709   1.073   5.775 -0.5553  0.0890 -0.1521
 2709SOL     OW10023   3.727   5.555   0.905  0.3272 -0.0160 -0.1692
 2709SOL    HW110024   3.728   5.598   0.991  0.3479 -0.7261  0.1925
 2709SOL    HW210025   3.762   5.468   0.922  2.0041  0.4357 -1.2374
 2709SOL     MW10026   3.731   5.550   0.918  0.5448 -0.0491 -0.2597
 2710SOL     OW10027   3.821   5.182   2.383 -0.1931  0.0882  0.3694
 2710SOL    HW110028   3.843   5.121   2.312 -0.7294  0.1016  0.1907
 2710SOL    HW210029   3.899   5.183   2.438  0.0004 -0.3865  0.1092
 2710SOL     MW10030   3.834   5.174   2.381 -0.2370  0.0296  0.3135
 2711SOL     OW10031   2.374   2.619   1.696 -0.4572  0.0482 -0.1400
 2711SOL    HW110032   2.399   2.629   1.788 -2.0333 -0.0556  0.3129
 2711SOL    HW210033   2.449   2.652   1.647  0.3669  0.1730  1.1888
 2711SOL     MW10034   2.387   2.624   1.701 -0.5536  0.0513  0.0881
 2712SOL     OW10035   3.950   2.747   4.269 -0.5166 -0.2717  0.0968
 2712SOL    HW110036   3.925   2.711   4.184 -1.5799 -0.6974  0.5777
 2712SOL    HW210037   3.985   2.672   4.317  0.1875 -0.0087 -0.0005
 2712SOL     MW10038   3.952   2.732   4.264 -0.5624 -0.2925  0.1464
 2713SOL     OW10039   0.885   4.132   5.468  0.4279  0.2176  0.5004
 2713SOL    HW110040   0.947   4.206   5.472  0.6905  0.0820 -0.7851
 2713SOL    HW210041   0.869   4.109   5.559  0.5306  1.7211  0.9113
 2713SOL     MW10042   0.891   4.139   5.480  0.4746  0.3929  0.3881
 2714SOL     OW10043   1.515   5.922   4.987 -0.7845 -0.4584 -0.3298
 2714SOL    HW110044   1.607   5.949   4.988 -0.2220 -2.2685  2.3546
 2714SOL    HW210045   1.515   5.835   4.949 -1.8923  0.8933 -3.6222
 2714SOL     MW10046   1.526   5.914   4.983 -0.8544 -0.5169 -0.4082
 2715SOL     OW10047   3.059   2.973   0.219  0.5040  0.0332  0.6337
 2715SOL    HW110048   3.072   2.915   0.144 -1.1711  0.8576 -0.3426
 2715SOL    HW210049   3.142   2.970   0.267  1.6488 -0.4194 -1.3110
 2715SOL     MW10050   3.071   2.965   0.215  0.4363  0.0808  0.2598
 2716SOL     OW10051   1.993   2.189   5.471  0.2385 -0.4981  0.8310
 2716SOL    HW110052   1.959   2.269   5.511  1.4327  0.8353 -0.7207
 2716SOL    HW210053   1.918   2.151   5.426 -0.3283 -0.2305  1.5386
 2716SOL     MW10054   1.979   2.194   5.471  0.3186 -0.2930  0.7234
 2717SOL     OW10055   0.373   4.783   0.790 -0.0680  0.2486 -0.0612
 2717SOL    HW110056   0.329   4.839   0.727 -0.0707  1.9541  1.4244
 2717SOL    HW210057   0.466   4.805   0.782  0.2116 -1.2413 -1.1261
 2717SOL     MW10058   0.379   4.793   0.781 -0.0325  0.2761 -0.0075
 2718SOL     OW10059   4.512   0.826   3.891  0.1974  0.3399  0.2613
 2718SOL    HW110060   4.497   0.886   3.964  1.7339  0.1825  0.7129
 2718SOL    HW210061   4.607   0.816   3.887  0.0093 -1.4303 -0.3176
 2718SOL     MW10062   4.522   0.832   3.900  0.3705  0.0931  0.2449
 2719SOL     OW10063   4.463   4.449   2.098 -0.4510 -0.2492 -0.1069
 2719SOL    HW110064   4.508   4.520   2.143 -2.2358 -0.1815  1.6027
 2719SOL    HW210065   4.403   4.492   2.038  0.9166 -0.3501 -1.6129
 2719SOL     MW10066   4.461   4.463   2.096 -0.5040 -0.2532 -0.0808
 2720SOL     OW10067   2.504   0.278   0.792 -0.2503  0.4168 -0.9913
 2720SOL    HW110068   2.558   0.267   0.870 -2.8816 -0.9677  0.6803
 2720SOL    HW210069   2.561   0.326   0.731  2.2059  0.6371  1.3607
 2720SOL     MW10070   2.518   0.283   0.794 -0.2725  0.2678 -0.4762
 2721SOL     OW10071   4.352   1.326   1.892  0.2210 -0.4303  0.1095
 2721SOL    HW110072   4.444   1.335   1.918  0.5181 -0.0706 -1.0501
 2721SOL    HW210073   4.337   1.232   1.892  0.8711 -0.5433 -0.6414
 2721SOL     MW10074   4.362   1.315   1.895  0.3414 -0.3986 -0.1351
 2722SOL     OW10075   3.708   4.948   0.762  0.5736 -0.4550 -0.1873
 2722SOL    HW110076   3.748   4.932   0.676  2.2863  1.9909  0.0743
 2722SOL    HW210077   3.774   4.919   0.825  0.3715  0.0579  0.2682
 2722SOL     MW10078   3.722   4.942   0.759  0.7665 -0.0758 -0.0955
 2723SOL     OW10079   4.032   0.024   2.216 -0.0553  0.6133  0.3342
 2723SOL    HW110080   4.125   0.005   2.211  0.1115  1.2654  0.8520
 2723SOL    HW210081   3.991  -0.060   2.236  0.2690  0.0292 -1.3563
 2723SOL     MW10082   4.038   0.011   2.217  0.0076  0.6223  0.1841
 2724SOL     OW10083   4.241   0.629   2.085 -0.0722  0.4701 -0.5754
 2724SOL    HW110084   4.149   0.613   2.063 -0.6478  2.6214  0.1894
 2724SOL    HW210085   4.239   0.664   2.174  1.6161 -0.7083 -0.0445
 2724SOL     MW10086   4.229   0.631   2.093  0.0706  0.5946 -0.4096
 2725SOL     OW10087   3.420   5.654   2.659 -0.2105  0.4929  0.4764
 2725SOL    HW110088   3.488   5.602   2.701  0.7458  1.3774  0.0369
 2725SOL    HW210089   3.351   5.591   2.637  0.5965 -0.4499  0.6386
 2725SOL     MW10090   3.420   5.640   2.662  0.0153  0.4854  0.4408
 2726SOL     OW10091   4.243   4.874   4.022 -0.2740 -0.1653  0.3193
 2726SOL    HW110092   4.193   4.819   4.082 -2.5361  0.2839 -1.0834
 2726SOL    HW210093   4.268   4.816   3.950 -0.5385  0.0692  0.0359
 2726SOL     MW10094   4.240   4.860   4.020 -0.5975 -0.0782  0.1035
 2727SOL     OW10095   3.051   0.731   5.694  0.0713  0.6646 -0.1328
 2727SOL    HW110096   3.113   0.673   5.739 -0.5698  0.2028  0.1726
 2727SOL    HW210097   3.087   0.741   5.606  0.7582  0.6785  0.1451
 2727SOL     MW10098   3.064   0.725   5.689  0.0770  0.6073 -0.0577
 2728SOL     OW10099   4.828   0.796   5.604 -0.5996  0.3091  0.0952
 2728SOL    HW110100   4.778   0.855   5.549  0.5874  0.2768 -1.0318
 2728SOL    HW210101   4.763   0.751   5.657 -1.5821  1.9526  0.3084
 2728SOL     MW10102   4.814   0.798   5.604 -0.5741  0.5154 -0.0219
 2729SOL     OW10103   2.955   2.815   3.341  0.0980  0.0156 -0.1673
 2729SOL    HW110104   2.998   2.791   3.422 -0.8985 -0.6188  0.1776
 2729SOL    HW210105   3.012   2.780   3.272  1.4400  1.3803  0.2210
 2729SOL     MW10106   2.968   2.808   3.342  0.1423  0.1092 -0.0737
 2730SOL     OW10107   2.126   5.414   4.961 -0.2332 -0.9245  0.4400
 2730SOL    HW110108   2.138   5.338   4.904 -1.6067 -1.6537  1.1078
 2730SOL    HW210109   2.092   5.378   5.042 -0.7359  0.3966  0.8277
 2730SOL     MW10110   2.124   5.400   4.964 -0.4735 -0.8483  0.5751
 2731SOL     OW10111   2.743   0.259   5.597  0.2761 -0.1872 -0.1539
 2731SOL    HW110112   2.834   0.289   5.592 -0.1563  1.8112  2.4424
 2731SOL    HW210113   2.748   0.178   5.647  0.6943 -0.3319 -0.4270
 2731SOL     MW10114   2.756   0.253   5.603  0.2742  0.0501  0.1435
 2732SOL     OW10115   1.196   0.629   4.787  0.1923 -0.1047  0.0489
 2732SOL    HW110116   1.251   0.694   4.743 -0.8132  0.5583 -0.2486
 2732SOL    HW210117   1.257   0.577   4.839  0.8181  2.2124  1.6972
 2732SOL     MW10118   1.211   0.631   4.788  0.1438  0.2768  0.2227
 2733SOL     OW10119   2.815   0.212   0.727 -0.0382 -0.2502 -0.2693
 2733SOL    HW110120   2.760   0.137   0.705  1.9347 -1.4844 -1.0823
 2733SOL    HW210121   2.853   0.191   0.812 -0.5069  0.4452  0.1250
 2733SOL     MW10122   2.812   0.200   0.735  0.1543 -0.3192 -0.3229
 2734SOL     OW10123   4.611   1.809   0.981  0.4244  0.6103  0.1060
 2734SOL    HW110124   4.660   1.743   1.028  1.5537  0.7811 -0.7970
 2734SOL    HW210125   4.599   1.880   1.044  2.1821  0.9654  0.0522
 2734SOL     MW10126   4.616   1.810   0.995  0.7939  0.6776 -0.0165
 2735SOL     OW10127   2.713   1.136   1.381  0.1289 -0.1036  0.4557
 2735SOL    HW110128   2.703   1.177   1.295  0.5284  0.0990  0.5054
 2735SOL    HW210129   2.646   1.177   1.436 -0.8499 -1.0077 -0.0403
 2735SOL     MW10130   2.703   1.146   1.377  0.0546 -0.1934  0.3985
 2736SOL     OW10131   2.484   4.728   4.712 -0.2639  0.2953 -0.1080
 2736SOL    HW110132   2.493   4.758   4.622 -1.9716  1.4192  0.0586
 2736SOL    HW210133   2.541   4.786   4.763 -0.1607  0.3908 -0.3306
 2736SOL     MW10134   2.492   4.739   4.707 -0.4692  0.4511 -0.1149
 2737SOL     OW10135   1.824   5.916   1.143 -0.4642 -0.4026 -0.8537
 2737SOL    HW110136   1.759   5.895   1.210 -1.3265  0.3372 -1.4544
 2737SOL    HW210137   1.851   6.006   1.164 -0.0126 -0.5236 -0.9113
 2737SOL     MW10138   1.819   5.925   1.154 -0.5168 -0.3228 -0.9381
 2738SOL     OW10139   0.472   2.177   3.643 -0.6758  0.3331 -0.0128
 2738SOL    HW110140   0.410   2.106   3.659 -0.3592  0.0595  0.0313
 2738SOL    HW210141   0.557   2.132   3.634 -0.7641  0.4985 -2.0125
 2738SOL     MW10142   0.475   2.162   3.644 -0.6466  0.3192 -0.2632
 2739SOL     OW10143   2.563   4.664   1.184  0.2135 -0.2017 -0.1452
 2739SOL    HW110144   2.503   4.591   1.202  0.0458  0.2195  1.1087
 2739SOL    HW210145   2.650   4.627   1.195  0.1536 -0.5101 -0.7103
 2739SOL     MW10146   2.566   4.650   1.188  0.1843 -0.1874 -0.0569
 2740SOL     OW10147   5.274   3.169   3.675 -0.0702  0.1949  0.4498
 2740SOL    HW110148   5.280   3.208   3.762 -2.0516 -1.2471  1.2971
 2740SOL    HW210149   5.283   3.075   3.692  0.7351 -0.0088 -1.0696
 2740SOL     MW10150   5.276   3.162   3.689 -0.2208 -0.0160  0.3638
 2741SOL     OW10151   3.028   1.061   3.285 -0.2004 -0.5903  0.0299
 2741SOL    HW110152   2.996   1.097   3.202  0.2730 -2.6482 -1.0798
 2741SOL    HW210153   2.949   1.039   3.334 -0.4838  0.5251  0.0745
 2741SOL     MW10154   3.014   1.063   3.280 -0.1760 -0.7110 -0.1066
 2742SOL     OW10155   4.902   0.570   4.753  0.0003 -0.1003 -0.0529
 2742SOL    HW110156   4.985   0.611   4.729  0.0610 -0.6953 -0.8573
 2742SOL    HW210157   4.918   0.476   4.748 -0.7722 -0.2258 -0.4234
 2742SOL     MW10158   4.914   0.563   4.749 -0.0911 -0.1926 -0.2036
 2743SOL     OW10159   1.871   2.845   1.049  0.1789 -0.5046  0.8306
 2743SOL    HW110160   1.843   2.903   1.120 -0.7647 -1.4462  1.2503
 2743SOL    HW210161   1.959   2.876   1.026  0.4973 -0.1795  2.4129
 2743SOL     MW10162   1.879   2.856   1.055  0.0988 -0.5839  1.0868
 2744SOL     OW10163   2.911   3.578   1.771  0.1779 -0.1829  0.5944
 2744SOL    HW110164   2.827   3.621   1.757 -0.1327 -0.6784  0.9437
 2744SOL    HW210165   2.975   3.638   1.732 -0.3073  0.3190  0.5608
 2744SOL     MW10166   2.908   3.591   1.764  0.0763 -0.1822  0.6348
 2745SOL     OW10167   5.943   0.631   3.409 -0.3775 -0.2707 -0.3026
 2745SOL    HW110168   5.992   0.700   3.453 -2.0209  0.1227  0.9449
 2745SOL    HW210169   5.907   0.578   3.480 -2.8432  0.2218 -1.1475
 2745SOL     MW10170   5.945   0.633   3.423 -0.9031 -0.1573 -0.2513
 2746SOL     OW10171   0.432   0.214   1.265  0.0734  0.2355 -0.8291
 2746SOL    HW110172   0.476   0.299   1.265  1.0228 -0.2122  0.8547
 2746SOL    HW210173   0.418   0.194   1.358  3.2313 -3.1066 -0.9421
 2746SOL     MW10174   0.436   0.222   1.277  0.5992 -0.2497 -0.6280
 2747SOL     OW10175   1.430   2.669   2.344  0.0019  0.3175  0.0694
 2747SOL    HW110176   1.390   2.757   2.342 -1.7000 -0.4139  0.8927
 2747SOL    HW210177   1.523   2.686   2.357 -0.5114  1.9739  2.0282
 2747SOL     MW10178   1.437   2.683   2.345 -0.2817  0.4358  0.4258
 2748SOL     OW10179   3.084   3.686   1.545  0.5028 -0.3536  0.1819
 2748SOL    HW110180   3.163   3.631   1.541  1.5811  1.2190 -0.8543
 2748SOL    HW210181   3.114   3.772   1.516 -1.4749  0.4335  0.4240
 2748SOL     MW10182   3.098   3.690   1.541  0.3877 -0.0515  0.0802
 2749SOL     OW10183   3.112   0.180   3.150  0.2244  0.2364  0.3451
 2749SOL    HW110184   3.161   0.111   3.107  1.0294 -0.0500  1.6829
 2749SOL    HW210185   3.028   0.183   3.104  0.5735 -0.9195 -0.3768
 2749SOL     MW10186   3.108   0.172   3.139  0.3719  0.0518  0.4241
 2750SOL     OW10187   2.849   0.779   1.042  0.3346  0.0341  0.1315
 2750SOL    HW110188   2.903   0.707   1.010  0.3710  0.3981 -0.6641
 2750SOL    HW210189   2.870   0.852   0.983 -2.6454 -0.4273 -1.6184
 2750SOL     MW10190   2.859   0.779   1.030 -0.0422  0.0216 -0.1944
 2751SOL     OW10191   3.387   2.555   1.664  0.1812  0.2284  0.1775
 2751SOL    HW110192   3.409   2.515   1.748  1.2555 -0.3327 -0.3645
 2751SOL    HW210193   3.311   2.610   1.683  0.3977  0.0827  1.5110
 2751SOL     MW10194   3.380   2.557   1.677  0.3467  0.1380  0.2789
 2752SOL     OW10195   0.284   0.580   4.703  0.0394 -0.0420 -0.3902
 2752SOL    HW110196   0.318   0.513   4.644  0.9791 -0.3246  0.4583
 2752SOL    HW210197   0.217   0.625   4.652 -0.6956 -1.7080 -0.9273
 2752SOL     MW10198   0.280   0.577   4.689  0.0656 -0.2915 -0.3500
 2753SOL     OW10199   4.776   2.105   2.679 -0.0611 -0.1890  0.4297
 2753SOL    HW110200   4.702   2.092   2.737 -1.2857  1.0512 -0.8073
 2753SOL    HW210201   4.828   2.025   2.687 -2.8155 -2.1439 -0.5406
 2753SOL     MW10202   4.774   2.093   2.687 -0.5708 -0.2806  0.1473
 2754SOL     OW10203   1.889   2.240   4.789  0.2084 -0.4677  0.1720
 2754SOL    HW110204   1.969   2.224   4.839  0.5899  0.1662 -0.2376
 2754SOL    HW210205   1.882   2.166   4.729  0.7978 -0.2195 -0.1988
 2754SOL     MW10206   1.898   2.229   4.788  0.3327 -0.3550  0.0720
 2755SOL     OW10207   5.627   2.497   0.153  0.1583  0.1541 -0.3225
 2755SOL    HW110208   5.602   2.556   0.224 -1.5524  0.1702 -0.9262
 2755SOL    HW210209   5.722   2.505   0.148  0.3694 -0.2125  2.2907
 2755SOL     MW10210   5.636   2.506   0.161 -0.0334  0.1092 -0.0652
 2756SOL     OW10211   0.055   1.146   3.812 -0.6481  0.0580  0.7305
 2756SOL    HW110212   0.114   1.153   3.886  0.2078 -0.5615  0.1205
 2756SOL    HW210213  -0.029   1.121   3.850  0.0180 -1.2208  1.4103
 2756SOL     MW10214   0.052   1.144   3.826 -0.4533 -0.1849  0.7396
 2757SOL     OW10215   4.464   0.443   5.706 -0.4001  0.2870 -0.4259
 2757SOL    HW110216   4.515   0.395   5.771 -0.1492 -0.8059 -1.4066
 2757SOL    HW210217   4.494   0.533   5.714 -1.9749  0.5914  2.4924
 2757SOL     MW10218   4.474   0.448   5.715 -0.5693  0.1861 -0.1783
 2758SOL     OW10219   1.954   3.986   3.069 -0.1330 -0.4449 -0.4845
 2758SOL    HW110220   1.991   3.913   3.119 -2.0658 -1.4684 -0.4996
 2758SOL    HW210221   1.877   3.949   3.027  0.6148  0.8102 -3.0405
 2758SOL     MW10222   1.949   3.972   3.070 -0.2847 -0.4151 -0.8135
 2759SOL     OW10223   2.915   1.379   3.590 -0.2304  0.3094 -0.8799
 2759SOL    HW110224   2.875   1.450   3.640  0.5703  0.9131 -1.0811
 2759SOL    HW210225   2.997   1.416   3.558 -0.5126 -0.2162 -2.2542
 2759SOL     MW10226   2.920   1.393   3.592 -0.1638  0.3194 -1.0817
 2760SOL     OW10227   1.184   5.140   3.743 -0.5629 -0.4118 -0.5715
 2760SOL    HW110228   1.229   5.106   3.821 -0.3839 -1.3537 -1.0787
 2760SOL    HW210229   1.202   5.075   3.675 -0.9683  0.2579 -1.3224
 2760SOL     MW10230   1.192   5.127   3.744 -0.5919 -0.4463 -0.7324
 2761SOL     OW10231   1.649   3.552   1.670  0.0121  0.4901  0.1386
 2761SOL    HW110232   1.597   3.495   1.614 -1.1565  3.5572 -2.0805
 2761SOL    HW210233   1.739   3.538   1.641 -0.6692  2.8786 -3.5062
 2761SOL     MW10234   1.654   3.543   1.659 -0.2246  1.1883 -0.6121
 2762SOL     OW10235   3.264   2.833   1.484  0.0221 -0.1235  0.3373
 2762SOL    HW110236   3.355   2.814   1.505  0.3746  0.1481 -0.9198
 2762SOL    HW210237   3.242   2.907   1.539  0.3128 -0.6882  1.2282
 2762SOL     MW10238   3.273   2.840   1.494  0.1047 -0.1609  0.2905
 2763SOL     OW10239   1.912   5.644   4.066  0.8728  0.0490 -0.6502
 2763SOL    HW110240   1.882   5.713   4.007  1.6416  0.3893 -0.6563
 2763SOL    HW210241   1.989   5.682   4.109  2.1613 -1.3093 -1.6914
 2763SOL     MW10242   1.918   5.658   4.064  1.1362 -0.0811 -0.7849
 2764SOL     OW10243   3.583   1.837   1.385 -0.1158  0.5293 -0.1930
 2764SOL    HW110244   3.561   1.799   1.300 -2.0264 -1.2686  1.0596
 2764SOL    HW210245   3.499   1.846   1.430  0.9717  0.3699  1.9491
 2764SOL     MW10246   3.570   1.833   1.380 -0.2213  0.2788  0.2415
 2765SOL     OW10247   3.425   5.584   2.319  0.7910  0.6696  0.2151
 2765SOL    HW110248   3.483   5.660   2.315  1.5748  0.1243  1.1239
 2765SOL    HW210249   3.478   5.515   2.359 -0.7083  0.3895  1.7737
 2765SOL     MW10250   3.439   5.585   2.324  0.6995  0.5641  0.5310
 2766SOL     OW10251   0.395   4.159   2.610 -0.3168 -0.6505  0.4112
 2766SOL    HW110252   0.315   4.132   2.655 -1.7689  0.5788 -1.3377
 2766SOL    HW210253   0.425   4.080   2.564  0.1287 -1.4100  1.9808
 2766SOL     MW10254   0.389   4.145   2.610 -0.4457 -0.5903  0.3884
 2767SOL     OW10255   2.766   1.659   0.643  0.8111 -0.0648 -0.0624
 2767SOL    HW110256   2.828   1.723   0.607  0.8142  0.5231  0.9547
 2767SOL    HW210257   2.797   1.575   0.610  0.2911  0.5275 -2.1412
 2767SOL     MW10258   2.778   1.657   0.634  0.7451  0.0863 -0.1982
 2768SOL     OW10259   0.663   3.164   4.129 -0.3406 -0.0575 -0.5704
 2768SOL    HW110260   0.718   3.129   4.200 -0.8509  1.1481  0.4485
 2768SOL    HW210261   0.653   3.091   4.068  0.4641 -0.9948  0.3903
 2768SOL     MW10262   0.669   3.150   4.131 -0.3029 -0.0234 -0.3176
 2769SOL     OW10263   5.415   4.297   2.624 -0.4107  0.6258  0.1406
 2769SOL    HW110264   5.377   4.239   2.690 -1.0112  2.6532  1.6180
 2769SOL    HW210265   5.509   4.299   2.645 -0.5303  0.9086  0.6589
 2769SOL     MW10266   5.422   4.290   2.635 -0.5031  0.9212  0.3960
 2770SOL     OW10267   3.892   0.747   4.386 -0.3567  0.5442 -0.1803
 2770SOL    HW110268   3.928   0.803   4.317  0.2756  1.2930  0.7408
 2770SOL    HW210269   3.800   0.738   4.364  0.0282  0.0176 -1.6326
 2770SOL     MW10270   3.885   0.753   4.374 -0.2265  0.5726 -0.2484
 2771SOL     OW10271   2.226   0.334   4.945 -0.4333 -0.4531  0.2729
 2771SOL    HW110272   2.303   0.382   4.914 -0.6809  0.7543  1.5003
 2771SOL    HW210273   2.260   0.271   5.009 -0.3390 -0.6496  0.0299
 2771SOL     MW10274   2.240   0.332   4.949 -0.4528 -0.3237  0.3986
 2772SOL     OW10275   4.860   3.863   1.512 -0.4930 -0.3252  0.1009
 2772SOL    HW110276   4.903   3.902   1.589 -0.7137  1.0388 -0.4416
 2772SOL    HW210277   4.912   3.894   1.438 -1.5927  0.1957 -0.4564
 2772SOL     MW10278   4.872   3.872   1.513 -0.6623 -0.0839 -0.0399
 2773SOL     OW10279   2.514   0.289   5.277  0.1910  0.1925 -0.4259
 2773SOL    HW110280   2.601   0.250   5.265 -0.4803 -1.2237 -0.6993
 2773SOL    HW210281   2.454   0.231   5.230 -0.9434  1.0539 -0.0744
 2773SOL     MW10282   2.518   0.277   5.269 -0.0403  0.1215 -0.4163
 2774SOL     OW10283   3.077   0.288   0.036  0.2358  0.7614  0.6778
 2774SOL    HW110284   3.053   0.295  -0.056  0.9165 -0.3068  0.4160
 2774SOL    HW210285   3.079   0.193   0.053  0.7633  0.9375  1.6147
 2774SOL     MW10286   3.074   0.277   0.027  0.3908  0.6472  0.7644
 2775SOL     OW10287   0.630   0.145   2.608 -0.0282 -0.0854  0.5191
 2775SOL    HW110288   0.617   0.232   2.645 -1.4885  0.5886 -1.5209
 2775SOL    HW210289   0.717   0.149   2.567 -0.3485  0.5855 -0.0928
 2775SOL     MW10290   0.640   0.156   2.607 -0.2561  0.0868  0.1795
 2776SOL     OW10291   1.569   2.818   4.528  0.1648 -1.3297  0.3019
 2776SOL    HW110292   1.629   2.840   4.599  1.1184  0.4153 -0.9794
 2776SOL    HW210293   1.483   2.845   4.560  0.7428  0.5008  0.4103
 2776SOL     MW10294   1.565   2.824   4.541  0.3608 -0.8719  0.1516
 2777SOL     OW10295   0.080   2.134   2.746 -0.3888 -0.1737  0.0109
 2777SOL    HW110296   0.011   2.151   2.683 -0.3452  1.2114  0.3217
 2777SOL    HW210297   0.123   2.055   2.714 -0.9599 -0.0122 -1.1655
 2777SOL     MW10298   0.077   2.126   2.734 -0.4564  0.0243 -0.1001
 2778SOL     OW10299   4.247   0.401   0.045  0.1523 -0.3242 -0.8397
 2778SOL    HW110300   4.197   0.482   0.052  0.9973  0.0086  1.6281
 2778SOL    HW210301   4.314   0.420  -0.020  0.4562  1.0211 -0.1347
 2778SOL     MW10302   4.249   0.414   0.037  0.2995 -0.1094 -0.4336
 2779SOL     OW10303   3.418   4.788   1.608  0.1819  0.1858 -0.4482
 2779SOL    HW110304   3.499   4.743   1.584 -0.6645 -1.0274 -1.0564
 2779SOL    HW210305   3.408   4.857   1.542 -0.4025 -1.0379 -1.6552
 2779SOL     MW10306   3.427   4.791   1.596 -0.0012 -0.1259 -0.6806
 2780SOL     OW10307   1.696   5.125   4.272 -0.3958 -0.5500  0.0844
 2780SOL    HW110308   1.617   5.085   4.309 -0.3286  0.1337  0.9918
 2780SOL    HW210309   1.742   5.052   4.231 -1.9555 -0.7931 -1.3061
 2780SOL     MW10310   1.692   5.111   4.272 -0.5869 -0.4940  0.0229
 2781SOL     OW10311   5.156   2.074   4.072  0.1481 -0.3580 -0.3671
 2781SOL    HW110312   5.199   2.061   4.156 -0.1141  0.2363 -0.1444
 2781SOL    HW210313   5.156   1.987   4.032 -1.2145 -0.9872  0.9582
 2781SOL     MW10314   5.162   2.061   4.077 -0.0596 -0.3626 -0.1688
 2782SOL     OW10315   3.604   2.765   3.042  0.6816 -0.4797 -0.1290
 2782SOL    HW110316   3.657   2.845   3.043 -0.1606  0.0776  0.5537
 2782SOL    HW210317   3.534   2.782   3.106 -1.5302 -0.3818 -2.5016
 2782SOL     MW10318   3.602   2.778   3.051  0.2906 -0.3960 -0.3455
 2783SOL     OW10319   4.025   3.132   2.480  0.4037  0.2354 -0.1811
 2783SOL    HW110320   4.086   3.068   2.515  1.2657 -0.0436 -2.1789
 2783SOL    HW210321   4.028   3.204   2.543  0.8785 -0.8351  1.0541
 2783SOL     MW10322   4.033   3.133   2.493  0.5746  0.0627 -0.2789
 2784SOL     OW10323   1.091   4.039   4.493 -0.4940  0.0203  0.4701
 2784SOL    HW110324   1.185   4.026   4.478 -0.4946 -0.2352  0.6874
 2784SOL    HW210325   1.070   4.120   4.447  0.0554  0.6431  1.3039
 2784SOL     MW10326   1.100   4.048   4.485 -0.4238  0.0672  0.6051
 2785SOL     OW10327   3.996   3.310   1.654 -0.1256 -0.1203 -0.1233
 2785SOL    HW110328   4.054   3.379   1.685  1.3516  0.2456 -3.5107
 2785SOL    HW210329   4.046   3.229   1.667 -0.0269 -0.0951 -0.3460
 2785SOL     MW10330   4.010   3.308   1.660  0.0758 -0.0699 -0.5854
 2786SOL     OW10331   1.444   3.161   0.770 -0.4322  0.7382  0.2859
 2786SOL    HW110332   1.400   3.167   0.855 -1.8003 -0.6791 -0.2995
 2786SOL    HW210333   1.517   3.101   0.786 -0.3933  0.8586  0.5726
 2786SOL     MW10334   1.448   3.154   0.783 -0.6024  0.5722  0.2477
 2787SOL     OW10335   5.188   0.075   1.541 -0.1231 -0.4574 -0.0766
 2787SOL    HW110336   5.152   0.126   1.469 -1.1652 -0.8001  0.1957
 2787SOL    HW210337   5.222   0.140   1.602 -1.5407 -0.0605  0.3205
 2787SOL     MW10338   5.188   0.090   1.540 -0.4382 -0.4505  0.0092
 2788SOL     OW10339   3.262   4.960   4.413  0.0846 -0.3396  0.6111
 2788SOL    HW110340   3.175   4.922   4.401 -0.4693  0.8610  0.7686
 2788SOL    HW210341   3.313   4.926   4.340 -1.0366  0.4284 -0.5538
 2788SOL     MW10342   3.257   4.951   4.402 -0.1299 -0.0877  0.4826
 2789SOL     OW10343   3.969   1.067   1.815 -0.0841 -0.1081  0.0266
 2789SOL    HW110344   3.891   1.085   1.867 -0.3234  0.8528 -0.6546
 2789SOL    HW210345   3.969   1.134   1.747  2.3121  1.0053  1.0547
 2789SOL     MW10346   3.959   1.078   1.813  0.1922  0.1576  0.0709
 2790SOL     OW10347   3.715   2.137   4.886  0.0669 -0.5669 -0.1013
 2790SOL    HW110348   3.724   2.086   4.806 -0.6749 -0.6236 -0.1528
 2790SOL    HW210349   3.624   2.122   4.914 -0.0306  0.3933  0.1108
 2790SOL     MW10350   3.704   2.129   4.879 -0.0410 -0.4513 -0.0801
 2791SOL     OW10351   0.745   3.926   3.774  0.5339  0.6903  0.1924
 2791SOL    HW110352   0.729   3.898   3.684 -0.4694  0.9006  0.2998
 2791SOL    HW210353   0.658   3.927   3.814  0.8656  1.5573  0.8861
 2791SOL     MW10354   0.732   3.922   3.767  0.4479  0.8283  0.2952
 2792SOL     OW10355   1.463   4.201   3.260  0.2020  0.0176 -0.4844
 2792SOL    HW110356   1.463   4.150   3.341 -1.4788  0.4986 -0.1663
 2792SOL    HW210357   1.542   4.256   3.267  0.8820 -1.0077  0.1251
 2792SOL     MW10358   1.473   4.201   3.272  0.0738 -0.0529 -0.3655
 2793SOL     OW10359   2.359   4.473   3.212 -0.1088 -0.2125 -0.7934
 2793SOL    HW110360   2.386   4.383   3.229 -1.6424 -0.7294 -1.0169
 2793SOL    HW210361   2.264   4.468   3.198 -0.2336  1.4499 -0.6997
 2793SOL     MW10362   2.350   4.461   3.212 -0.3211 -0.0653 -0.8099
 2794SOL     OW10363   1.688   2.151   1.503  0.1912 -0.1027  0.1164
 2794SOL    HW110364   1.645   2.233   1.524 -0.3064 -0.5153  0.7134
 2794SOL    HW210365   1.781   2.174   1.493  0.0323  0.5451  0.1556
 2794SOL     MW10366   1.695   2.164   1.504  0.1070 -0.0727  0.1978
 2795SOL     OW10367   2.698   2.433   1.201 -0.0672 -0.2544  0.0708
 2795SOL    HW110368   2.694   2.433   1.106 -0.7367  1.0090  0.0963
 2795SOL    HW210369   2.646   2.357   1.227 -1.1561  0.2828 -0.5253
 2795SOL     MW10370   2.691   2.423   1.192 -0.2921 -0.0238 -0.0023
 2796SOL     OW10371   2.210   4.084   4.246 -0.0503  0.0010 -0.0701
 2796SOL    HW110372   2.300   4.051   4.238 -0.3808 -0.9912  0.3297
 2796SOL    HW210373   2.195   4.089   4.340 -0.7501 -0.7254 -0.1445
 2796SOL     MW10374   2.220   4.081   4.257 -0.1824 -0.2193 -0.0286
 2797SOL     OW10375   4.793   2.034   3.861 -0.5843 -0.6298 -0.1195
 2797SOL    HW110376   4.770   2.035   3.768  0.3060 -0.6926 -0.3438
 2797SOL    HW210377   4.852   1.959   3.870 -0.1413 -0.2272  0.3678
 2797SOL     MW10378   4.797   2.024   3.851 -0.4139 -0.5860 -0.0856
 2798SOL     OW10379   5.231   4.548   4.908  0.3972  0.1345 -0.2709
 2798SOL    HW110380   5.220   4.596   4.826 -0.9474  0.9108  0.3494
 2798SOL    HW210381   5.165   4.479   4.905 -0.3271  0.7664  0.5675
 2798SOL     MW10382   5.221   4.546   4.897  0.1321  0.3142 -0.0844
 2799SOL     OW10383   2.095   4.445   2.313  0.0918  0.6601 -0.7039
 2799SOL    HW110384   2.089   4.526   2.263  0.9210  0.7470 -0.6774
 2799SOL    HW210385   2.029   4.388   2.275 -2.3880  2.2823  1.0469
 2799SOL     MW10386   2.086   4.448   2.302 -0.1194  0.8793 -0.4764
 2800SOL     OW10387   0.859   0.801   5.774 -0.1014 -0.1480 -0.3866
 2800SOL    HW110388   0.844   0.769   5.863  1.5506  0.7727  0.2426
 2800SOL    HW210389   0.916   0.735   5.734  1.5834  0.8902  0.2297
 2800SOL     MW10390   0.865   0.789   5.780  0.3258  0.1027 -0.2275
 2801SOL     OW10391   0.186   0.742   4.909 -0.0151  0.2731  0.0434
 2801SOL    HW110392   0.203   0.678   4.840 -0.3660 -0.1339  0.3338
 2801SOL    HW210393   0.197   0.827   4.866  3.2844  0.0600  0.2973
 2801SOL     MW10394   0.190   0.745   4.895  0.3623  0.1937  0.1130
 2802SOL     OW10395   2.342   3.067   3.571  0.0162  0.8124 -0.0360
 2802SOL    HW110396   2.261   3.078   3.622  1.1005 -0.2297  1.9336
 2802SOL    HW210397   2.412   3.070   3.636  1.6614  2.7145 -1.8369
 2802SOL     MW10398   2.340   3.069   3.586  0.3653  0.9224 -0.0141
 2803SOL     OW10399   4.793   3.024   1.565 -0.1241 -0.6484  0.6153
 2803SOL    HW110400   4.724   3.087   1.585 -2.3573 -2.7111 -0.4494
 2803SOL    HW210401   4.793   2.964   1.639  0.7886 -0.4479  0.7838
 2803SOL     MW10402   4.784   3.024   1.577 -0.2933 -0.8867  0.5006
 2804SOL     OW10403   1.716   5.223   1.115  0.4298 -0.0771  0.3167
 2804SOL    HW110404   1.788   5.205   1.175  0.9457  1.2818  0.1282
 2804SOL    HW210405   1.757   5.259   1.037 -0.3309 -0.7946 -0.4252
 2804SOL     MW10406   1.730   5.226   1.113  0.3985  0.0057  0.1976
 2805SOL     OW10407   1.468   2.477   1.775  0.6456 -0.2916 -0.5400
 2805SOL    HW110408   1.527   2.528   1.831  0.8820  0.5326 -1.5197
 2805SOL    HW210409   1.388   2.530   1.771  0.8987  0.0290 -1.5709
 2805SOL     MW10410   1.465   2.491   1.781  0.7083 -0.1450 -0.7974
 2806SOL     OW10411   5.505   2.543   3.477 -0.5880 -0.6588  0.8865
 2806SOL    HW110412   5.483   2.486   3.404 -3.2567  0.4111  0.7818
 2806SOL    HW210413   5.593   2.576   3.457 -1.1443 -0.6267 -1.6902
 2806SOL     MW10414   5.513   2.540   3.465 -1.0009 -0.5178  0.5434
 2807SOL     OW10415   5.565   0.474   1.293  0.0889  0.0613 -0.1066
 2807SOL    HW110416   5.609   0.540   1.347  0.0035  1.6026 -1.8631
 2807SOL    HW210417   5.472   0.486   1.312  0.1291 -0.1600  0.2379
 2807SOL     MW10418   5.559   0.484   1.302  0.0830  0.2302 -0.2873
 2808SOL     OW10419   2.185   0.259   3.863 -0.4436  0.0897  0.3847
 2808SOL    HW110420   2.231   0.191   3.911 -0.0888 -0.1033 -0.2262
 2808SOL    HW210421   2.227   0.341   3.891  0.1309 -0.0681 -0.0231
 2808SOL     MW10422   2.196   0.261   3.873 -0.3247  0.0448  0.2544
 2809SOL     OW10423   2.152   4.003   3.426  0.2864 -0.0694 -0.8129
 2809SOL    HW110424   2.202   4.082   3.446  0.0728  0.1838 -1.2636
 2809SOL    HW210425   2.216   3.933   3.422  0.0487 -0.6727  3.6226
 2809SOL     MW10426   2.166   4.004   3.428  0.2284 -0.1144 -0.3028
 2810SOL     OW10427   4.234   0.185   0.417 -0.2956  0.4641 -0.3271
 2810SOL    HW110428   4.160   0.133   0.449  0.3650  0.0958  0.6034
 2810SOL    HW210429   4.247   0.155   0.327 -1.5611  0.8499 -0.6600
 2810SOL     MW10430   4.226   0.175   0.410 -0.3729  0.4663 -0.2506
 2811SOL     OW10431   4.438   1.009   4.081  0.1164 -0.2680  0.5278
 2811SOL    HW110432   4.365   1.005   4.143 -0.3743  0.8583  0.0509
 2811SOL    HW210433   4.432   1.098   4.044  1.3703 -0.3748  0.0557
 2811SOL     MW10434   4.427   1.020   4.085  0.2136 -0.1376  0.4058
 2812SOL     OW10435   4.597   0.257   0.023 -0.8079  0.3469  0.3896
 2812SOL    HW110436   4.575   0.171  -0.014 -0.5831  0.0276  0.9925
 2812SOL    HW210437   4.693   0.260   0.021 -0.8207  0.6472  0.2242
 2812SOL     MW10438   4.607   0.246   0.018 -0.7801  0.3445  0.4454
 2813SOL     OW10439   0.564   5.893   3.791 -0.5335 -0.1093 -0.6861
 2813SOL    HW110440   0.581   5.847   3.709  1.1849 -1.3258  0.3233
 2813SOL    HW210441   0.627   5.857   3.853 -0.7003  1.9591  0.7615
 2813SOL     MW10442   0.574   5.883   3.788 -0.3349 -0.0005 -0.3717
 2814SOL     OW10443   4.307   3.693   0.002 -0.0664  0.2959  0.2999
 2814SOL    HW110444   4.224   3.716   0.041  0.4639  1.5913  0.6708
 2814SOL    HW210445   4.344   3.626   0.060 -0.6571  0.0087  0.3450
 2814SOL     MW10446   4.301   3.687   0.014 -0.0744  0.4251  0.3533
 2815SOL     OW10447   2.317   4.414   0.676 -0.2491 -0.1763 -0.7491
 2815SOL    HW110448   2.336   4.450   0.762  0.5126 -0.2251 -0.8920
 2815SOL    HW210449   2.322   4.320   0.687  0.4087 -0.1712 -0.9668
 2815SOL     MW10450   2.320   4.407   0.688 -0.0675 -0.1822 -0.7952
 2816SOL     OW10451   2.127   3.026   4.262 -0.5899  0.0229  0.2944
 2816SOL    HW110452   2.137   2.952   4.202 -0.4374  0.0924  0.2316
 2816SOL    HW210453   2.202   3.019   4.322 -0.8139 -0.1186  0.5541
 2816SOL     MW10454   2.138   3.016   4.262 -0.5989  0.0138  0.3190
 2817SOL     OW10455   2.110   4.705   4.546  0.4035 -0.4170  0.3279
 2817SOL    HW110456   2.104   4.610   4.540  0.2839 -0.3557 -0.4719
 2817SOL    HW210457   2.137   4.721   4.637 -1.2396 -1.1401  0.9643
 2817SOL     MW10458   2.113   4.695   4.557  0.1779 -0.5021  0.3071
 2818SOL     OW10459   0.059   5.056   3.856 -0.5814  0.6738 -0.0965
 2818SOL    HW110460   0.008   5.136   3.872  0.6568  1.7641 -1.5124
 2818SOL    HW210461   0.142   5.072   3.900 -1.1646 -0.8509  1.6631
 2818SOL     MW10462   0.063   5.069   3.864 -0.4975  0.6185 -0.0522
 2819SOL     OW10463   5.748   0.795   0.258 -0.2786  0.5629 -0.0244
 2819SOL    HW110464   5.788   0.735   0.320 -1.1505 -0.7164 -0.6709
 2819SOL    HW210465   5.781   0.767   0.173  1.5048  2.7769 -0.1073
 2819SOL     MW10466   5.757   0.784   0.255 -0.1616  0.6825 -0.1178
 2820SOL     OW10467   1.258   0.662   2.111 -0.2386  0.2644  0.3764
 2820SOL    HW110468   1.277   0.591   2.172  0.4693 -1.1500 -1.4335
 2820SOL    HW210469   1.295   0.740   2.152 -2.2780 -0.1248  3.0774
 2820SOL     MW10470   1.265   0.663   2.124 -0.4091  0.0336  0.4904
 2821SOL     OW10471   0.890   1.598   5.249 -0.2989 -0.0195  0.0798
 2821SOL    HW110472   0.904   1.691   5.267  2.0959 -0.7518  2.4091
 2821SOL    HW210473   0.833   1.568   5.320  0.6242 -0.7418  0.5299
 2821SOL     MW10474   0.884   1.606   5.261  0.1259 -0.2055  0.4358
 2822SOL     OW10475   0.388   2.596   3.899  0.6103 -0.2409 -0.1129
 2822SOL    HW110476   0.327   2.630   3.834  0.0984  0.0500  0.5170
 2822SOL    HW210477   0.451   2.544   3.848 -0.1792 -0.5789 -0.7561
 2822SOL     MW10478   0.388   2.594   3.884  0.4437 -0.2472 -0.1144
 2823SOL     OW10479   5.683   0.906   0.977  0.2915  0.2223  0.5780
 2823SOL    HW110480   5.681   0.812   0.958  0.1196  0.0465  1.4468
 2823SOL    HW210481   5.692   0.911   1.072  0.7730  1.0888  0.4880
 2823SOL     MW10482   5.684   0.894   0.987  0.3309  0.3107  0.6778
 2824SOL     OW10483   1.750   5.401   5.096  0.0321 -0.2788 -0.1557
 2824SOL    HW110484   1.659   5.426   5.108  0.0505 -0.3211  0.0623
 2824SOL    HW210485   1.781   5.458   5.025 -0.5155 -1.1093 -1.0860
 2824SOL     MW10486   1.742   5.411   5.088 -0.0356 -0.3905 -0.2475
 2825SOL     OW10487   1.583   2.970   2.326  0.0045  0.2610  0.5785
 2825SOL    HW110488   1.608   3.046   2.274  0.2093  0.8176  1.4822
 2825SOL    HW210489   1.490   2.957   2.306 -0.2061  1.1648  0.9333
 2825SOL     MW10490   1.574   2.978   2.316  0.0037  0.4478  0.7396
 2826SOL     OW10491   1.658   4.119   5.343 -0.2210  0.5937 -0.1254
 2826SOL    HW110492   1.596   4.192   5.344 -1.1528 -0.1772  2.6513
 2826SOL    HW210493   1.737   4.154   5.384 -1.1343 -0.2684  2.4967
 2826SOL     MW10494   1.660   4.133   5.348 -0.4573  0.3848  0.5651
 2827SOL     OW10495   5.655   0.313   1.024  0.0925 -0.6858 -0.5824
 2827SOL    HW110496   5.631   0.237   0.971 -3.2405 -1.1019  1.3649
 2827SOL    HW210497   5.588   0.379   1.003  0.1549 -0.0067  1.2374
 2827SOL     MW10498   5.643   0.312   1.015 -0.3266 -0.6521 -0.1003
 2828SOL     OW10499   3.279   3.350   5.007  0.1978 -0.1813  0.2578
 2828SOL    HW110500   3.263   3.319   5.096 -0.6590 -0.3854  0.0415
 2828SOL    HW210501   3.341   3.286   4.970  0.5665 -0.0872  0.7087
 2828SOL     MW10502   3.285   3.338   5.014  0.1354 -0.1953  0.2875
 2829SOL     OW10503   4.994   5.309   3.597  0.2811  0.0131 -0.3633
 2829SOL    HW110504   4.907   5.281   3.568 -0.8082  1.4036  1.4141
 2829SOL    HW210505   5.039   5.337   3.517 -0.5127 -1.6999 -1.4358
 2829SOL     MW10506   4.989   5.309   3.583  0.0401 -0.0281 -0.2732
 2830SOL     OW10507   2.994   5.942   0.149 -0.5092  0.2821 -0.0821
 2830SOL    HW110508   3.089   5.936   0.136 -0.9324 -1.1306 -3.0690
 2830SOL    HW210509   2.973   5.870   0.208  0.0032 -1.0169 -1.4463
 2830SOL     MW10510   3.004   5.932   0.155 -0.4978 -0.0648 -0.6391
 2831SOL     OW10511   2.268   0.224   4.203  0.0952 -0.0809  0.2514
 2831SOL    HW110512   2.340   0.284   4.220 -0.8649  1.5089 -1.1760
 2831SOL    HW210513   2.301   0.164   4.136  0.9524 -0.9731  1.4647
 2831SOL     MW10514   2.281   0.224   4.196  0.0820  0.0084  0.2241
 2832SOL     OW10515   5.009   4.293   4.628  0.0480  0.4184  0.5965
 2832SOL    HW110516   4.950   4.230   4.669  1.3761 -0.6230  0.9270
 2832SOL    HW210517   5.023   4.360   4.696  0.6427 -0.2556  1.1485
 2832SOL     MW10518   5.003   4.294   4.642  0.2947  0.1988  0.7095
 2833SOL     OW10519   1.656   5.502   2.504  0.0195 -0.6529 -0.5543
 2833SOL    HW110520   1.597   5.463   2.439 -1.6059 -0.0420  0.5166
 2833SOL    HW210521   1.620   5.476   2.588  0.9763  0.1754  0.1255
 2833SOL     MW10522   1.644   5.494   2.506 -0.0660 -0.4687 -0.3300
 2834SOL     OW10523   1.140   0.470   2.513 -0.3277 -0.3802 -0.2503
 2834SOL    HW110524   1.058   0.425   2.496 -0.0834 -0.9627  0.0984
 2834SOL    HW210525   1.176   0.426   2.590  0.1000  0.1562 -0.1422
 2834SOL     MW10526   1.134   0.459   2.521 -0.2416 -0.3861 -0.1919
 2835SOL     OW10527   1.581   5.080   4.597  0.3120 -0.3825 -0.0780
 2835SOL    HW110528   1.494   5.074   4.637  0.2204  0.8778 -0.0920
 2835SOL    HW210529   1.617   4.991   4.606 -2.2809 -1.8261 -3.0628
 2835SOL     MW10530   1.574   5.068   4.603 -0.0317 -0.4063 -0.4621
 2836SOL     OW10531   3.309   2.556   4.465 -0.2660 -0.2126 -0.7019
 2836SOL    HW110532   3.234   2.584   4.519  1.1065 -0.2835  1.3147
 2836SOL    HW210533   3.286   2.467   4.438 -1.1778 -0.0200 -0.5930
 2836SOL     MW10534   3.297   2.548   4.469 -0.2069 -0.1974 -0.4296
 2837SOL     OW10535   0.687   1.303   3.763  0.4733  0.3612 -0.1860
 2837SOL    HW110536   0.733   1.302   3.847  0.5952 -1.7183 -0.2553
 2837SOL    HW210537   0.750   1.343   3.703  0.8711  0.6932  0.4414
 2837SOL     MW10538   0.701   1.308   3.766  0.5398  0.1376 -0.1144
 2838SOL     OW10539   2.362   3.067   1.024 -0.4832  0.6887  0.4357
 2838SOL    HW110540   2.376   3.113   1.107  0.5186  2.1196 -0.4980
 2838SOL    HW210541   2.300   3.123   0.976 -0.5757  0.1938 -0.0309
 2838SOL     MW10542   2.356   3.080   1.028 -0.3669  0.8085  0.2564
 2839SOL     OW10543   1.643   0.202   4.455  0.0314  0.0139  0.1118
 2839SOL    HW110544   1.583   0.191   4.529 -0.7838  3.8853  0.1454
 2839SOL    HW210545   1.729   0.212   4.496  0.0937 -1.1440  0.3010
 2839SOL     MW10546   1.646   0.202   4.470 -0.0650  0.3612  0.1407
 2840SOL     OW10547   0.570   4.586   3.666 -0.0219  0.6022 -0.1417
 2840SOL    HW110548   0.479   4.567   3.686 -0.2551 -0.2104 -1.9122
 2840SOL    HW210549   0.572   4.679   3.645 -0.2599  0.8343  0.8310
 2840SOL     MW10550   0.559   4.595   3.666 -0.0823  0.5279 -0.2439
 2841SOL     OW10551   5.524   0.324   1.662 -0.3711 -0.3314  0.7676
 2841SOL    HW110552   5.527   0.420   1.661  0.5362 -0.3646 -1.0831
 2841SOL    HW210553   5.432   0.303   1.672 -0.6916  0.7419  0.1054
 2841SOL     MW10554   5.513   0.334   1.663 -0.2961 -0.1982  0.4460
 2842SOL     OW10555   4.091   5.454   2.047  0.1145 -0.4725  0.4390
 2842SOL    HW110556   4.181   5.428   2.030 -0.3772 -2.1214  0.2549
 2842SOL    HW210557   4.082   5.449   2.142  0.3054 -0.0297  0.4784
 2842SOL     MW10558   4.101   5.450   2.057  0.0768 -0.6270  0.4206
 2843SOL     OW10559   2.050   0.242   0.002  0.6866 -0.0548 -0.2973
 2843SOL    HW110560   2.116   0.205   0.060  0.9068 -0.8274 -1.0339
 2843SOL    HW210561   1.967   0.211   0.037  0.8672 -1.2645 -0.9066
 2843SOL     MW10562   2.048   0.233   0.014  0.7379 -0.3086 -0.4696
 2844SOL     OW10563   3.265   0.691   0.997 -0.4451 -0.0286  0.7970
 2844SOL    HW110564   3.352   0.655   0.978 -1.2842 -0.6156 -2.0623
 2844SOL    HW210565   3.277   0.786   0.988 -0.3719 -0.1805 -0.8707
 2844SOL     MW10566   3.278   0.699   0.993 -0.5434 -0.1233  0.2174
 2845SOL     OW10567   0.534   2.210   3.170  0.5117  0.3952 -0.0770
 2845SOL    HW110568   0.552   2.151   3.243  1.9536  0.5906 -0.2538
 2845SOL    HW210569   0.546   2.298   3.207 -0.8887  0.5684 -0.0056
 2845SOL     MW10570   0.538   2.214   3.184  0.5170  0.4425 -0.0904
 2846SOL     OW10571   1.615   0.867   2.998  0.6789  0.0441 -0.0902
 2846SOL    HW110572   1.655   0.820   2.924 -1.9571 -0.8106 -1.0440
 2846SOL    HW210573   1.581   0.948   2.960 -2.5562 -1.3494 -0.3472
 2846SOL     MW10574   1.616   0.871   2.984 -0.0726 -0.2437 -0.2451
 2847SOL     OW10575   3.863   5.936   5.424  0.0710  0.2580 -0.2073
 2847SOL    HW110576   3.839   6.022   5.457 -0.9464 -0.7937  1.8756
 2847SOL    HW210577   3.853   5.877   5.499  2.2743 -1.4326 -1.1584
 2847SOL     MW10578   3.859   5.940   5.438  0.2227 -0.0925 -0.0625
 2848SOL     OW10579   5.178   2.088   1.532 -0.3927 -0.5973 -0.3606
 2848SOL    HW110580   5.170   1.993   1.530 -0.4178 -0.6689  2.2083
 2848SOL    HW210581   5.267   2.106   1.501  0.9542 -1.7037  2.7233
 2848SOL     MW10582   5.189   2.078   1.528 -0.2232 -0.7482  0.3630
 2849SOL     OW10583   0.862   2.380   5.332 -0.0794  0.6192 -0.2387
 2849SOL    HW110584   0.795   2.323   5.370 -0.0485  0.3600 -0.5648
 2849SOL    HW210585   0.873   2.450   5.396  0.8176 -0.4194  0.7742
 2849SOL     MW10586   0.855   2.381   5.345  0.0394  0.4530 -0.1507
 2850SOL     OW10587   3.340   2.729   2.782 -0.1457  0.1362 -0.1552
 2850SOL    HW110588   3.412   2.678   2.744  1.4522  3.0311 -1.2463
 2850SOL    HW210589   3.378   2.816   2.794 -2.9320  1.2099  1.0972
 2850SOL     MW10590   3.354   2.734   2.779 -0.2978  0.6442 -0.1342
 2851SOL     OW10591   1.761   0.553   4.511 -0.1520  0.8858 -0.3730
 2851SOL    HW110592   1.808   0.474   4.539 -0.1923  1.3590  1.0405
 2851SOL    HW210593   1.681   0.520   4.471  0.2084  0.1760 -0.5219
 2851SOL     MW10594   1.757   0.538   4.509 -0.1111  0.8556 -0.2108
 2852SOL     OW10595   2.432   1.159   3.279  0.2594  0.1094  0.0701
 2852SOL    HW110596   2.465   1.239   3.318  1.9256 -0.0679 -0.9066
 2852SOL    HW210597   2.425   1.179   3.185 -1.2906 -0.2339  0.1060
 2852SOL     MW10598   2.435   1.172   3.272  0.2742  0.0428 -0.0503
 2853SOL     OW10599   3.773   0.867   2.442 -0.1324  0.4166  0.0731
 2853SOL    HW110600   3.850   0.923   2.434 -0.1949  0.7181  1.4138
 2853SOL    HW210601   3.777   0.809   2.366  1.9169 -0.1950  0.6144
 2853SOL     MW10602   3.783   0.867   2.431  0.1218  0.3768  0.3140
 2854SOL     OW10603   3.949   4.903   1.794 -0.6242 -0.1948 -0.6227
 2854SOL    HW110604   3.986   4.933   1.877 -0.1008 -3.2768  0.3073
 2854SOL    HW210605   3.999   4.950   1.727  1.5671 -0.5356  0.7234
 2854SOL     MW10606   3.960   4.913   1.796 -0.2766 -0.6328 -0.3313
 2855SOL     OW10607   0.096   3.016   2.097  1.1832 -0.2601  0.2985
 2855SOL    HW110608   0.062   3.100   2.125 -0.1101 -0.3624 -0.9009
 2855SOL    HW210609   0.068   2.954   2.164  3.1865  0.4385  1.8220
 2855SOL     MW10610   0.088   3.019   2.109  1.2741 -0.1838  0.3400
 2856SOL     OW10611   5.962   2.000   2.076  0.0759  0.1198 -0.4574
 2856SOL    HW110612   5.963   1.982   1.982  0.5205 -0.1131 -0.4101
 2856SOL    HW210613   5.951   1.914   2.117  0.6609  0.1340 -0.2723
 2856SOL     MW10614   5.961   1.987   2.069  0.2074  0.0919 -0.4272
 2857SOL     OW10615   0.610   4.997   5.446  0.5591 -0.5668  0.3289
 2857SOL    HW110616   0.678   5.051   5.487  1.2331 -1.5967  0.5983
 2857SOL    HW210617   0.627   4.908   5.479 -0.0211 -1.0933 -0.7569
 2857SOL     MW10618   0.621   4.992   5.456  0.5711 -0.7663  0.2241
 2858SOL     OW10619   1.174   1.964   0.149 -0.1476  0.2172 -0.3848
 2858SOL    HW110620   1.186   2.052   0.113  0.5360 -0.0626 -0.8669
 2858SOL    HW210621   1.221   1.965   0.233 -1.4374  0.7637  0.3348
 2858SOL     MW10622   1.182   1.975   0.155 -0.2252  0.2514 -0.3544
 2859SOL     OW10623   1.240   1.386   3.403 -0.5025  0.2981  0.5325
 2859SOL    HW110624   1.246   1.473   3.443 -0.2525  0.4747  0.1183
 2859SOL    HW210625   1.301   1.389   3.329  0.0935 -0.4817  0.9775
 2859SOL     MW10626   1.249   1.397   3.399 -0.3941  0.2210  0.5362
 2860SOL     OW10627   4.913   2.789   4.729  0.1159 -0.0236 -0.2314
 2860SOL    HW110628   4.831   2.740   4.723 -0.5123  1.0964 -0.8982
 2860SOL    HW210629   4.977   2.733   4.687 -0.5144 -0.4492 -0.6342
 2860SOL     MW10630   4.910   2.775   4.723 -0.0453  0.0658 -0.3681
 2861SOL     OW10631   1.472   4.311   5.293  0.4820  0.2415 -0.5108
 2861SOL    HW110632   1.435   4.295   5.380  1.2588  0.0083 -0.2247
 2861SOL    HW210633   1.527   4.389   5.304  1.5646 -0.5154 -0.5038
 2861SOL     MW10634   1.474   4.319   5.306  0.7200  0.1144 -0.4730
 2862SOL     OW10635   3.921   0.208   0.189  0.0316 -0.0303  0.5462
 2862SOL    HW110636   3.944   0.279   0.129 -1.3458 -0.0094  0.0078
 2862SOL    HW210637   3.828   0.190   0.170 -0.6599  0.5192  3.2400
 2862SOL     MW10638   3.912   0.215   0.179 -0.2332  0.0427  0.8221
 2863SOL     OW10639   1.335   0.633   4.418  0.0323 -0.8687  0.0093
 2863SOL    HW110640   1.362   0.688   4.491 -0.6855  0.8847 -0.9982
 2863SOL    HW210641   1.284   0.563   4.458  0.0756 -0.2028  1.2467
 2863SOL     MW10642   1.332   0.631   4.432 -0.0540 -0.5590  0.0386
 2864SOL     OW10643   0.814   1.175   2.588 -0.0851 -0.1355  0.4950
 2864SOL    HW110644   0.727   1.168   2.550  0.9771 -2.4056 -1.6821
 2864SOL    HW210645   0.870   1.124   2.529  3.0309  2.6385  0.9027
 2864SOL     MW10646   0.810   1.167   2.576  0.4498 -0.0709  0.2687
 2865SOL     OW10647   5.357   0.177   4.486 -0.1276 -0.0585  0.2681
 2865SOL    HW110648   5.287   0.212   4.432  0.0705 -0.9628 -0.5984
 2865SOL    HW210649   5.315   0.154   4.568 -1.1080 -1.6866 -0.6553
 2865SOL     MW10650   5.343   0.179   4.489 -0.2275 -0.3827  0.0391
 2866SOL     OW10651   1.413   2.613   5.618 -0.3245 -0.1406  0.3116
 2866SOL    HW110652   1.479   2.680   5.598 -0.2519 -0.0870  0.7422
 2866SOL    HW210653   1.457   2.530   5.599  0.8849 -0.2731  3.4561
 2866SOL     MW10654   1.427   2.611   5.613 -0.1605 -0.1507  0.7691
 2867SOL     OW10655   1.338   4.213   1.192  0.1808  0.0840 -0.1956
 2867SOL    HW110656   1.414   4.170   1.153 -0.5073 -2.8108  1.4720
 2867SOL    HW210657   1.374   4.275   1.255  1.1722 -0.7148  0.0305
 2867SOL     MW10658   1.352   4.215   1.195  0.2196 -0.3891  0.0470
 2868SOL     OW10659   0.710   1.933   0.906 -0.1510 -0.0622  0.0789
 2868SOL    HW110660   0.766   1.856   0.897  0.3572  0.2292  0.6992
 2868SOL    HW210661   0.622   1.900   0.890  0.2792 -0.3521 -1.8445
 2868SOL     MW10662   0.706   1.919   0.903 -0.0309 -0.0621 -0.0879
 2869SOL     OW10663   4.563   5.598   1.004 -0.2247 -0.3657 -0.5832
 2869SOL    HW110664   4.608   5.648   0.935 -0.1086 -0.8652 -0.8726
 2869SOL    HW210665   4.632   5.549   1.047 -0.3746 -0.4776 -0.4696
 2869SOL     MW10666   4.577   5.598   1.001 -0.2289 -0.4439 -0.6057
 2870SOL     OW10667   0.190   4.667   4.605  0.3095  0.0421  0.0457
 2870SOL    HW110668   0.279   4.690   4.579  0.5468  0.4778  1.1994
 2870SOL    HW210669   0.149   4.636   4.525  1.4098  0.1207 -0.5627
 2870SOL     MW10670   0.196   4.666   4.592  0.4807  0.1078  0.1149
 2871SOL     OW10671   1.518   0.700   0.797  0.2593  0.2006 -0.2928
 2871SOL    HW110672   1.489   0.788   0.821 -0.3789 -0.0434 -0.1516
 2871SOL    HW210673   1.605   0.713   0.760  0.9220  0.6730  1.3873
 2871SOL     MW10674   1.525   0.713   0.795  0.2624  0.2299 -0.0596
 2872SOL     OW10675   5.565   5.576   1.797 -0.0627 -0.4118 -0.4970
 2872SOL    HW110676   5.551   5.494   1.846  0.5561 -0.5770 -0.5947
 2872SOL    HW210677   5.646   5.561   1.748 -0.8777 -0.3937 -1.8789
 2872SOL     MW10678   5.574   5.563   1.797 -0.0877 -0.4311 -0.6865
 2873SOL     OW10679   5.638   5.442   1.168 -0.1873  0.2193 -0.5322
 2873SOL    HW110680   5.589   5.449   1.086  0.7185 -1.0601 -1.1953
 2873SOL    HW210681   5.635   5.530   1.205 -2.9815  0.1603 -0.5484
 2873SOL     MW10682   5.632   5.454   1.162 -0.4292  0.0482 -0.6192
 2874SOL     OW10683   0.441   3.706   5.036 -0.5676  0.2450 -0.1344
 2874SOL    HW110684   0.378   3.655   4.985 -0.3274 -2.7646  2.4116
 2874SOL    HW210685   0.420   3.685   5.127  3.6862 -0.2951  0.8099
 2874SOL     MW10686   0.430   3.697   5.041  0.0077 -0.2096  0.3123
 2875SOL     OW10687   4.954   2.389   1.858  0.2970 -0.1490  0.5301
 2875SOL    HW110688   4.999   2.414   1.778 -1.6551  0.4865 -0.3917
 2875SOL    HW210689   4.864   2.369   1.831 -0.2223 -0.5627  2.4401
 2875SOL     MW10690   4.948   2.390   1.844 -0.0196 -0.1206  0.6566
 2876SOL     OW10691   1.033   4.196   0.500  0.0885 -0.1686 -0.4613
 2876SOL    HW110692   1.119   4.155   0.510 -0.7315 -2.3545 -1.9236
 2876SOL    HW210693   0.972   4.122   0.497 -1.4880  1.1773 -2.8249
 2876SOL     MW10694   1.036   4.181   0.501 -0.2183 -0.2761 -0.9511
 2877SOL     OW10695   3.395   3.482   4.215 -0.4847  0.8371  0.1782
 2877SOL    HW110696   3.391   3.388   4.232  1.0737  1.2932  3.6986
 2877SOL    HW210697   3.308   3.515   4.236 -1.2373  0.1119 -1.7438
 2877SOL     MW10698   3.384   3.474   4.220 -0.3815  0.8025  0.3829
 2878SOL     OW10699   2.910   0.286   4.595 -0.2171 -0.2941  0.1062
 2878SOL    HW110700   2.875   0.374   4.606  1.2433  0.4383 -1.0719
 2878SOL    HW210701   2.968   0.273   4.670  0.4021  0.1445 -0.3009
 2878SOL     MW10702   2.913   0.295   4.606  0.0491 -0.1442 -0.0968
 2879SOL     OW10703   5.103   0.298   3.904  0.0710  0.6930  0.2028
 2879SOL    HW110704   5.014   0.290   3.939 -0.3030  0.9194 -0.6739
 2879SOL    HW210705   5.116   0.218   3.853 -0.1522  1.2945 -0.8108
 2879SOL     MW10706   5.093   0.287   3.902 -0.0057  0.7990 -0.0391
 2880SOL     OW10707   5.752   0.058   0.444 -0.7718 -0.1019  0.1451
 2880SOL    HW110708   5.800   0.123   0.391 -1.2615 -0.7487 -1.1211
 2880SOL    HW210709   5.737   0.102   0.528  0.4963  0.7499 -0.0607
 2880SOL     MW10710   5.756   0.072   0.448 -0.6719 -0.0757 -0.0434
 2881SOL     OW10711   4.174   4.369   4.956  0.4854 -0.7221  0.2095
 2881SOL    HW110712   4.149   4.405   4.870  0.1151  2.5333  1.5783
 2881SOL    HW210713   4.233   4.297   4.935 -0.8156 -1.0074 -2.8204
 2881SOL     MW10714   4.179   4.365   4.942  0.2718 -0.3414 -0.0029
 2882SOL     OW10715   4.199   3.909   5.499  0.0848  0.0649  0.0742
 2882SOL    HW110716   4.193   4.005   5.502 -0.3409  0.0360  0.1551
 2882SOL    HW210717   4.293   3.891   5.497  0.2375  0.4300  2.1944
 2882SOL     MW10718   4.210   3.919   5.499  0.0496  0.1078  0.3562
 2883SOL     OW10719   2.334   4.308   1.644 -0.6610 -0.2727 -0.0826
 2883SOL    HW110720   2.402   4.304   1.711 -0.0072 -0.1827 -0.7324
 2883SOL    HW210721   2.255   4.276   1.688  0.0270 -1.3266  0.3942
 2883SOL     MW10722   2.333   4.303   1.658 -0.4892 -0.3958 -0.1047
 2884SOL     OW10723   4.882   2.501   2.517 -0.6407  0.1495 -0.5621
 2884SOL    HW110724   4.848   2.566   2.579  1.2118  1.5311 -0.9255
 2884SOL    HW210725   4.911   2.429   2.572 -1.3772  0.2521 -0.0281
 2884SOL     MW10726   4.881   2.500   2.532 -0.4978  0.3395 -0.5403
 2885SOL     OW10727   4.510   0.514   4.762 -0.5116  0.1555  0.0397
 2885SOL    HW110728   4.581   0.452   4.748 -0.3976  0.4297 -0.6368
 2885SOL    HW210729   4.459   0.509   4.681 -0.8907  0.4391  0.2625
 2885SOL     MW10730   4.512   0.505   4.750 -0.5455  0.2269 -0.0181
 2886SOL     OW10731   5.993   4.967   1.156  0.3890 -0.0522  0.6349
 2886SOL    HW110732   5.912   4.982   1.205 -0.1322 -2.9560  0.7814
 2886SOL    HW210733   6.062   4.982   1.221 -0.1135  0.4188  1.0713
 2886SOL     MW10734   5.992   4.970   1.171  0.2580 -0.3638  0.7095
 2887SOL     OW10735   0.501   0.831   3.294 -0.6527 -0.0051  0.1496
 2887SOL    HW110736   0.410   0.851   3.318 -0.4560  0.3289  0.6195
 2887SOL    HW210737   0.537   0.916   3.267 -0.5926 -0.2072 -0.4062
 2887SOL     MW10738   0.494   0.845   3.294 -0.6199  0.0117  0.1383
 2888SOL     OW10739   5.754   4.226   4.031 -0.2808 -0.3152  0.1931
 2888SOL    HW110740   5.691   4.267   3.972 -1.2081 -0.5625  0.9921
 2888SOL    HW210741   5.718   4.241   4.119  0.0440 -1.6842  0.5725
 2888SOL     MW10742   5.741   4.233   4.035 -0.3576 -0.5217  0.3438
 2889SOL     OW10743   0.227   5.887   3.360  0.2892  0.0867 -1.2398
 2889SOL    HW110744   0.169   5.958   3.387  0.4980  0.0097 -0.5775
 2889SOL    HW210745   0.262   5.915   3.275 -0.6808  0.1523 -1.6285
 2889SOL     MW10746   0.224   5.900   3.352  0.1918  0.0849 -1.2047
 2890SOL     OW10747   3.486   0.859   1.461 -0.2776 -0.3591 -0.0247
 2890SOL    HW110748   3.499   0.949   1.433 -1.0451 -0.2928 -0.1804
 2890SOL    HW210749   3.533   0.853   1.544 -0.0660  0.1307 -0.1085
 2890SOL     MW10750   3.494   0.870   1.468 -0.3490 -0.2880 -0.0553
 2891SOL     OW10751   2.017   0.648   0.011 -0.2334  0.6640  0.0071
 2891SOL    HW110752   1.980   0.564  -0.017 -2.8847  1.2706  1.5262
 2891SOL    HW210753   2.019   0.701  -0.068  0.5059 -0.4951 -0.7624
 2891SOL     MW10754   2.013   0.644  -0.002 -0.4783  0.5933  0.1031
 2892SOL     OW10755   2.738   0.111   4.681 -0.0259 -0.1191  0.4473
 2892SOL    HW110756   2.672   0.095   4.613 -0.4777 -2.5663  1.4069
 2892SOL    HW210757   2.799   0.173   4.641 -0.6008 -1.0523 -1.9779
 2892SOL     MW10758   2.737   0.117   4.667 -0.1576 -0.5518  0.2599
 2893SOL     OW10759   4.262   1.080   3.065  0.1965 -0.0589 -0.1964
 2893SOL    HW110760   4.211   1.158   3.085  1.7953  0.9656 -0.0322
 2893SOL    HW210761   4.223   1.011   3.119 -0.9488  0.7177 -0.0178
 2893SOL     MW10762   4.251   1.081   3.074  0.2542  0.1718 -0.1526
 2894SOL     OW10763   4.143   0.699   4.917 -0.2606  0.8486 -0.0705
 2894SOL    HW110764   4.054   0.703   4.952 -0.0250  1.5231  0.4676
 2894SOL    HW210765   4.199   0.722   4.991  0.4075 -0.1983 -0.2467
 2894SOL     MW10766   4.139   0.703   4.931 -0.1454  0.8010 -0.0238
 2895SOL     OW10767   4.715   1.816   1.815  0.0803 -0.2406 -0.5390
 2895SOL    HW110768   4.645   1.873   1.782  0.0778  1.5068  2.2399
 2895SOL    HW210769   4.792   1.872   1.816  0.1587 -0.3422  1.9173
 2895SOL     MW10770   4.716   1.831   1.811  0.0901 -0.0300  0.1312
 2896SOL     OW10771   2.686   1.041   4.446  0.2619 -0.3313  0.4034
 2896SOL    HW110772   2.687   1.030   4.541  0.2924  1.7612  0.6812
 2896SOL    HW210773   2.779   1.047   4.422  0.2192  0.7726  0.4771
 2896SOL     MW10774   2.698   1.041   4.455  0.2604  0.0778  0.4482
 2897SOL     OW10775   1.732   0.936   1.423 -0.4507  0.5806  0.2784
 2897SOL    HW110776   1.674   0.860   1.423  0.4610 -0.1400  1.9338
 2897SOL    HW210777   1.814   0.904   1.385 -0.5953  1.1782 -0.5506
 2897SOL     MW10778   1.735   0.922   1.418 -0.3525  0.5648  0.3842
 2898SOL     OW10779   2.571   5.834   1.685  0.0105 -0.7081 -0.0178
 2898SOL    HW110780   2.481   5.867   1.694 -0.0226  0.1638 -2.8790
 2898SOL    HW210781   2.596   5.807   1.773 -1.9412  1.9568  1.4179
 2898SOL     MW10782   2.562   5.835   1.697 -0.2437 -0.2551 -0.2003
 2899SOL     OW10783   2.288   1.710   3.622  0.0663 -0.1369  0.0510
 2899SOL    HW110784   2.213   1.675   3.670 -0.4528  0.6462 -0.1687
 2899SOL    HW210785   2.320   1.782   3.677  0.2775 -0.0767 -0.1497
 2899SOL     MW10786   2.282   1.715   3.635  0.0269 -0.0291 -0.0029
 2900SOL     OW10787   5.467   1.896   4.088  0.0260 -0.4281 -0.0163
 2900SOL    HW110788   5.436   1.909   3.998  1.6443 -0.4079 -0.6003
 2900SOL    HW210789   5.505   1.980   4.113  1.1488 -0.9289  0.0305
 2900SOL     MW10790   5.468   1.908   4.080  0.3767 -0.4897 -0.0854
 2901SOL     OW10791   0.902   5.475   1.569  0.5167  0.4624 -0.0288
 2901SOL    HW110792   0.932   5.405   1.511  0.2510 -0.0600  0.4576
 2901SOL    HW210793   0.973   5.485   1.633  0.1338 -0.0316  0.4783
 2901SOL     MW10794   0.915   5.467   1.570  0.4337  0.3324  0.0982
 2902SOL     OW10795   1.177   1.276   4.249  0.0915  0.1853 -0.2061
 2902SOL    HW110796   1.195   1.206   4.312 -1.1481 -0.5202 -0.6060
 2902SOL    HW210797   1.082   1.278   4.242 -0.0042  3.2517  1.2661
 2902SOL     MW10798   1.167   1.267   4.256 -0.0795  0.4876 -0.0682
 2903SOL     OW10799   4.085   0.142   1.963 -0.5770 -0.0956  0.6190
 2903SOL    HW110800   4.055   0.120   2.051  0.0931 -0.0279  0.8628
 2903SOL    HW210801   4.122   0.060   1.929  4.0963  1.1519  2.4017
 2903SOL     MW10802   4.086   0.129   1.970  0.1073  0.0728  0.8785
 2904SOL     OW10803   2.193   1.040   1.307 -0.0592 -0.3276  0.0781
 2904SOL    HW110804   2.185   1.116   1.365  0.4756 -0.5655  0.4598
 2904SOL    HW210805   2.124   1.054   1.241 -0.4198  0.1288  0.5454
 2904SOL     MW10806   2.183   1.052   1.306 -0.0367 -0.2998  0.1867
 2905SOL     OW10807   0.673   1.817   0.359 -0.3098  0.4035 -0.3209
 2905SOL    HW110808   0.608   1.770   0.411 -0.0771  1.2013  0.7092
 2905SOL    HW210809   0.678   1.768   0.277  1.1829 -2.4040  1.3621
 2905SOL     MW10810   0.666   1.805   0.355 -0.0890  0.1463  0.0264
 2906SOL     OW10811   1.297   1.666   4.701 -0.2672  0.5104  0.5288
 2906SOL    HW110812   1.284   1.571   4.700  1.2592  0.2933 -0.4295
 2906SOL    HW210813   1.223   1.700   4.651 -1.1569 -0.1112  1.3829
 2906SOL     MW10814   1.286   1.658   4.694 -0.1858  0.4030  0.5150
 2907SOL     OW10815   3.591   4.843   3.169  0.3849 -0.2749 -0.0928
 2907SOL    HW110816   3.660   4.892   3.125  0.0760  1.0787  0.8958
 2907SOL    HW210817   3.636   4.792   3.236  0.2614  2.2451  2.0022
 2907SOL     MW10818   3.605   4.843   3.172  0.3293  0.2208  0.3018
 2908SOL     OW10819   0.524   2.164   0.591  0.5412  0.3787  0.5146
 2908SOL    HW110820   0.607   2.142   0.635 -0.0421 -0.7949  1.0267
 2908SOL    HW210821   0.523   2.108   0.513  0.7517  1.2115 -0.0948
 2908SOL     MW10822   0.535   2.154   0.587  0.4934  0.3350  0.5021
 2909SOL     OW10823   2.199   5.440   4.572 -0.3964 -0.1432 -0.0749
 2909SOL    HW110824   2.200   5.457   4.478  0.4383 -3.3837 -0.7122
 2909SOL    HW210825   2.272   5.491   4.607  0.3208 -0.2303 -1.4313
 2909SOL     MW10826   2.209   5.449   4.564 -0.1976 -0.5693 -0.3300
 2910SOL     OW10827   0.259   0.038   3.119 -0.1096 -0.4124 -0.0723
 2910SOL    HW110828   0.304  -0.014   3.053 -0.8174 -1.4777  0.2795
 2910SOL    HW210829   0.166   0.022   3.103 -0.4189  1.8795 -0.8848
 2910SOL     MW10830   0.253   0.030   3.108 -0.2398 -0.2554 -0.1316
 2911SOL     OW10831   0.260   3.951   1.772 -0.3306  0.4166  0.2751
 2911SOL    HW110832   0.308   4.025   1.735  2.6814 -2.4876 -1.9423
 2911SOL    HW210833   0.318   3.917   1.841 -1.0024 -0.6873  0.3082
 2911SOL     MW10834   0.274   3.956   1.776 -0.0311 -0.0966 -0.0044
 2912SOL     OW10835   1.806   4.793   3.356 -0.1152 -0.1682  0.2247
 2912SOL    HW110836   1.798   4.738   3.434  0.0502  0.3472  0.6047
 2912SOL    HW210837   1.716   4.819   3.336  0.2059  3.5663  3.0348
 2912SOL     MW10838   1.793   4.789   3.363 -0.0528  0.3762  0.6330
 2913SOL     OW10839   1.977   1.959   3.370  0.4929 -0.0789  0.0835
 2913SOL    HW110840   1.941   1.875   3.399 -0.6735 -0.1647 -1.4651
 2913SOL    HW210841   2.036   1.986   3.439  1.7096 -2.7040  0.1265
 2913SOL     MW10842   1.980   1.952   3.382  0.4995 -0.4261 -0.1092
 2914SOL     OW10843   4.526   5.965   5.268 -0.6624 -0.2090  0.0194
 2914SOL    HW110844   4.457   6.016   5.226  0.4349 -0.3552 -2.0194
 2914SOL    HW210845   4.552   6.017   5.344 -1.5290  0.8764 -0.4201
 2914SOL     MW10846   4.521   5.978   5.272 -0.6328 -0.0888 -0.2975
 2915SOL     OW10847   0.008   5.762   3.030 -0.2295  0.4224 -0.0263
 2915SOL    HW110848  -0.067   5.706   3.013  0.7493 -1.3683  1.4075
 2915SOL    HW210849   0.036   5.739   3.119  1.4625  1.7096 -0.1926
 2915SOL     MW10850   0.002   5.752   3.039  0.1125  0.3576  0.1361
 2916SOL     OW10851   3.872   4.479   1.289 -0.7471 -0.4955 -0.4739
 2916SOL    HW110852   3.801   4.498   1.229  0.5414  0.2545 -1.8029
 2916SOL    HW210853   3.896   4.564   1.326 -1.0814 -0.8573  0.5901
 2916SOL     MW10854   3.866   4.493   1.286 -0.6249 -0.4458 -0.5078
 2917SOL     OW10855   0.079   5.674   3.269 -0.8531 -0.0595  0.2169
 2917SOL    HW110856   0.125   5.592   3.288 -2.5781 -1.1128 -0.0206
 2917SOL    HW210857   0.136   5.742   3.304  1.1752 -1.2810 -0.6644
 2917SOL     MW10858   0.092   5.672   3.276 -0.8143 -0.3510  0.0737
 2918SOL     OW10859   4.407   4.213   0.558  0.1635  0.0554  0.6147
 2918SOL    HW110860   4.333   4.173   0.605  1.2052 -1.5637  0.9121
 2918SOL    HW210861   4.475   4.222   0.625  1.1562 -0.9463 -0.2396
 2918SOL     MW10862   4.406   4.209   0.573  0.4234 -0.2799  0.5435
 2919SOL     OW10863   3.130   1.123   1.352 -0.3531 -0.2172  0.1430
 2919SOL    HW110864   3.136   1.068   1.431 -0.9816 -1.8826 -0.9570
 2919SOL    HW210865   3.221   1.139   1.328 -0.1591 -0.2640  0.8263
 2919SOL     MW10866   3.143   1.118   1.359 -0.4089 -0.4363  0.0895
 2920SOL     OW10867   4.791   3.336   3.265  0.3226  0.3834 -0.6578
 2920SOL    HW110868   4.879   3.348   3.229  0.9421 -1.3395  0.2786
 2920SOL    HW210869   4.797   3.367   3.355  0.0855 -0.1727 -0.4507
 2920SOL     MW10870   4.803   3.342   3.272  0.3715  0.0916 -0.5114
 2921SOL     OW10871   4.392   3.010   1.776 -0.3379 -0.6311 -0.1652
 2921SOL    HW110872   4.370   2.920   1.749  0.0097 -0.7921  0.0829
 2921SOL    HW210873   4.383   3.009   1.871 -2.9875  0.3210 -0.3773
 2921SOL     MW10874   4.388   2.998   1.784 -0.6328 -0.5300 -0.1606
 2922SOL     OW10875   2.361   1.869   0.286  0.0466  0.4891 -0.1796
 2922SOL    HW110876   2.305   1.797   0.314  0.1460  0.1494 -0.8394
 2922SOL    HW210877   2.374   1.854   0.192  1.6048  0.3150  0.0548
 2922SOL     MW10878   2.355   1.858   0.278  0.2589  0.4234 -0.2340
 2923SOL     OW10879   0.709   4.229   2.296 -0.2111  0.1049 -0.3093
 2923SOL    HW110880   0.617   4.208   2.280  0.4454 -1.6257 -2.0648
 2923SOL    HW210881   0.715   4.323   2.285 -1.8151  0.2588  0.0483
 2923SOL     MW10882   0.698   4.238   2.292 -0.3324 -0.0973 -0.4883
 2924SOL     OW10883   3.665   2.073   3.513 -0.3161 -0.4819 -0.9440
 2924SOL    HW110884   3.642   2.007   3.578  0.7379 -0.4164 -0.4973
 2924SOL    HW210885   3.658   2.156   3.560 -3.8911 -0.0367 -2.1055
 2924SOL     MW10886   3.661   2.075   3.528 -0.6387 -0.4165 -1.0357
 2925SOL     OW10887   2.628   1.752   3.561 -0.4892 -0.3080 -0.3804
 2925SOL    HW110888   2.687   1.807   3.509  0.1615 -0.5145  0.1284
 2925SOL    HW210889   2.557   1.731   3.502  0.2338 -0.5173 -1.1877
 2925SOL     MW10890   2.627   1.757   3.547 -0.3133 -0.3613 -0.4189
 2926SOL     OW10891   1.508   2.783   1.672 -0.0744 -0.1107  0.4568
 2926SOL    HW110892   1.458   2.857   1.637  1.9438  1.2918  0.4760
 2926SOL    HW210893   1.567   2.758   1.601  0.8563 -0.2070  1.2547
 2926SOL     MW10894   1.509   2.790   1.659  0.3031  0.0565  0.5614
 2927SOL     OW10895   2.730   1.849   0.051 -1.2444 -0.2434 -0.3461
 2927SOL    HW110896   2.734   1.904   0.130  2.8235 -0.3588 -0.3611
 2927SOL    HW210897   2.667   1.893  -0.006 -1.5776  1.7928  1.5334
 2927SOL     MW10898   2.722   1.862   0.054 -0.7660  0.0024 -0.1074
 2928SOL     OW10899   1.616   3.894   0.414 -0.4969 -0.2083 -0.1764
 2928SOL    HW110900   1.629   3.916   0.322 -1.4123 -0.9702 -0.5085
 2928SOL    HW210901   1.681   3.945   0.462 -0.3233  0.5417 -1.2105
 2928SOL     MW10902   1.626   3.903   0.409 -0.5919 -0.2096 -0.3512
 2929SOL     OW10903   4.548   1.756   5.308 -0.2517  0.4871 -0.1263
 2929SOL    HW110904   4.468   1.804   5.330 -0.8534 -0.9505  0.8848
 2929SOL    HW210905   4.571   1.709   5.388  0.4969 -0.6851 -1.0116
 2929SOL     MW10906   4.541   1.756   5.321 -0.2332  0.1531 -0.1106
 2930SOL     OW10907   5.544   5.773   3.632 -0.5037 -0.1817  0.2468
 2930SOL    HW110908   5.524   5.826   3.709 -0.7706  2.8257 -1.8024
 2930SOL    HW210909   5.638   5.755   3.638 -0.2887  1.0619  0.6539
 2930SOL     MW10910   5.553   5.777   3.642 -0.5107  0.3624  0.0367
 2931SOL     OW10911   5.998   3.783   0.566  0.1528  0.4054 -0.5457
 2931SOL    HW110912   5.983   3.694   0.532  0.2270  0.0513  0.3468
 2931SOL    HW210913   5.997   3.773   0.661 -2.0217  1.6941 -0.3797
 2931SOL     MW10914   5.996   3.770   0.574 -0.1161  0.5250 -0.4101
 2932SOL     OW10915   3.982   2.864   2.685 -0.2203 -0.3939 -0.0850
 2932SOL    HW110916   3.950   2.775   2.696 -1.1281 -0.1451 -0.6477
 2932SOL    HW210917   4.044   2.858   2.612 -0.5086 -0.5123 -0.3223
 2932SOL     MW10918   3.986   2.852   2.677 -0.3734 -0.3769 -0.1876
 2933SOL     OW10919   5.250   4.523   2.620 -0.2017 -0.1974  0.1898
 2933SOL    HW110920   5.165   4.479   2.612 -0.5263  0.5903 -0.8365
 2933SOL    HW210921   5.314   4.455   2.603 -0.6101 -0.9398  1.5795
 2933SOL     MW10922   5.247   4.509   2.617 -0.2956 -0.1917  0.2363
 2934SOL     OW10923   2.087   4.905   2.089  0.2788  0.2511 -0.4306
 2934SOL    HW110924   2.004   4.951   2.102  0.3207  0.2931 -0.3041
 2934SOL    HW210925   2.064   4.812   2.093  0.2801  0.2633 -0.1098
 2934SOL     MW10926   2.073   4.899   2.091  0.2842  0.2575 -0.3736
 2935SOL     OW10927   2.412   3.155   4.219  0.3023  0.2862 -0.4442
 2935SOL    HW110928   2.476   3.218   4.253 -0.8724  1.5493 -0.5540
 2935SOL    HW210929   2.381   3.193   4.137 -1.3438  0.1966  0.1113
 2935SOL     MW10930   2.416   3.167   4.213 -0.0589  0.4363 -0.3872
 2936SOL     OW10931   3.503   1.198   4.994  0.7540  0.1867 -0.5073
 2936SOL    HW110932   3.505   1.149   4.912 -0.2204 -1.5389  0.4558
 2936SOL    HW210933   3.511   1.290   4.968  0.0554 -0.3122 -2.5578
 2936SOL     MW10934   3.504   1.204   4.980  0.5400 -0.0981 -0.6466
 2937SOL     OW10935   1.368   2.266   3.468 -0.4062 -0.4121 -0.7229
 2937SOL    HW110936   1.303   2.335   3.467 -0.1190 -0.1342 -0.1053
 2937SOL    HW210937   1.326   2.192   3.423 -1.7817 -0.8201  1.1774
 2937SOL     MW10938   1.355   2.265   3.462 -0.5455 -0.4287 -0.4008
 2938SOL     OW10939   1.851   4.040   0.809  0.2551  0.3061 -0.2183
 2938SOL    HW110940   1.766   3.996   0.809 -0.1886  1.1401 -0.8917
 2938SOL    HW210941   1.913   3.973   0.837 -0.7395 -0.0741  1.1130
 2938SOL     MW10942   1.848   4.025   0.812  0.0709  0.3643 -0.1341
 2939SOL     OW10943   5.785   2.268   2.083  0.5217  0.9394  0.2015
 2939SOL    HW110944   5.842   2.297   2.012  1.4522  3.0968  1.7648
 2939SOL    HW210945   5.796   2.173   2.085  1.3203  0.9497 -1.8118
 2939SOL     MW10946   5.794   2.259   2.074  0.7429  1.2166  0.1440
 2940SOL     OW10947   5.797   3.915   0.146 -0.3225  0.2302  0.5474
 2940SOL    HW110948   5.875   3.893   0.096 -0.1478  0.0473  0.9014
 2940SOL    HW210949   5.828   3.933   0.234 -0.8604 -1.4242  1.0836
 2940SOL     MW10950   5.811   3.915   0.151 -0.3691 -0.0050  0.6613
 2941SOL     OW10951   3.445   5.463   1.403 -0.0171  0.8186 -0.4786
 2941SOL    HW110952   3.391   5.384   1.403  3.6654 -1.8542 -1.7099
 2941SOL    HW210953   3.477   5.470   1.493  0.1098  0.6072 -0.5084
 2941SOL     MW10954   3.442   5.454   1.414  0.4706  0.4492 -0.6400
 2942SOL     OW10955   3.408   2.172   0.051 -0.1362  0.5778  0.1381
 2942SOL    HW110956   3.422   2.130  -0.034 -0.4086  1.7434 -0.4933
 2942SOL    HW210957   3.455   2.117   0.114 -0.4939 -0.6649 -0.6717
 2942SOL     MW10958   3.416   2.159   0.048 -0.2167  0.5682 -0.0464
 2943SOL     OW10959   4.620   5.673   3.945  0.2723 -0.2290 -0.5909
 2943SOL    HW110960   4.694   5.619   3.919 -0.4128 -0.7322 -1.5593
 2943SOL    HW210961   4.559   5.612   3.987  0.9221  0.3989  1.3144
 2943SOL     MW10962   4.622   5.658   3.947  0.2680 -0.2131 -0.4709
 2944SOL     OW10963   4.086   2.440   3.513 -0.2750  0.5091  1.1994
 2944SOL    HW110964   3.995   2.410   3.518 -0.2860  0.5661  1.3258
 2944SOL    HW210965   4.128   2.401   3.589 -0.1156  0.2159  0.9659
 2944SOL     MW10966   4.080   2.431   3.523 -0.2556  0.4787  1.1859
 2945SOL     OW10967   1.680   0.625   0.391  0.0239  0.5555 -0.1483
 2945SOL    HW110968   1.773   0.633   0.374 -0.1235  0.0493 -1.2144
 2945SOL    HW210969   1.654   0.712   0.422  0.4135  1.3512 -1.9922
 2945SOL     MW10970   1.688   0.637   0.393  0.0550  0.5926 -0.5208
 2946SOL     OW10971   1.097   3.729   2.476  0.1058 -0.2032  0.1942
 2946SOL    HW110972   1.025   3.670   2.456 -0.3662  0.5298 -0.3111
 2946SOL    HW210973   1.174   3.687   2.438 -0.4371  0.1261 -1.3015
 2946SOL     MW10974   1.098   3.716   2.469 -0.0241 -0.0670 -0.0618
 2947SOL     OW10975   1.950   1.560   4.205  0.5436  0.7196  0.1529
 2947SOL    HW110976   1.890   1.543   4.133  1.4573  2.1970 -0.9963
 2947SOL    HW210977   1.899   1.545   4.284 -0.1574 -2.0220 -0.7834
 2947SOL     MW10978   1.936   1.556   4.206  0.5708  0.5577 -0.1135
 2948SOL     OW10979   3.194   0.881   1.507 -0.1160 -0.9077  0.8026
 2948SOL    HW110980   3.289   0.876   1.497 -0.2237  0.1595 -0.9679
 2948SOL    HW210981   3.160   0.811   1.451 -0.4572  0.3856 -0.6325
 2948SOL     MW10982   3.201   0.871   1.498 -0.1733 -0.6056  0.3922
 2949SOL     OW10983   1.566   2.379   5.596 -0.0643  0.2000  0.1018
 2949SOL    HW110984   1.508   2.319   5.548 -0.2596 -0.1788  0.8107
 2949SOL    HW210985   1.541   2.369   5.687  1.1172  0.0361  0.4175
 2949SOL     MW10986   1.555   2.370   5.601  0.0620  0.1307  0.2327
 2950SOL     OW10987   3.032   5.478   2.472 -0.2234 -0.6453 -0.1464
 2950SOL    HW110988   2.959   5.456   2.529 -0.1641  0.6183  0.4126
 2950SOL    HW210989   2.995   5.475   2.383 -0.8114 -0.5319  0.0960
 2950SOL     MW10990   3.018   5.475   2.468 -0.2911 -0.4692 -0.0439
 2951SOL     OW10991   3.104   5.462   5.600  0.3429 -0.1675  0.3499
 2951SOL    HW110992   3.009   5.465   5.611  0.3633 -3.1146  1.8786
 2951SOL    HW210993   3.118   5.393   5.534  1.4398 -0.1860  0.5956
 2951SOL     MW10994   3.093   5.453   5.593  0.4859 -0.5469  0.5770
 2952SOL     OW10995   1.829   3.421   5.409 -0.6129 -0.5907 -0.6722
 2952SOL    HW110996   1.918   3.418   5.372 -0.2438  0.6135  0.0773
 2952SOL    HW210997   1.799   3.510   5.393 -0.4801 -0.0490  1.7752
 2952SOL     MW10998   1.837   3.432   5.402 -0.5485 -0.3669 -0.2632
 2953SOL     OW10999   2.705   0.479   4.919 -0.0793  0.5567  0.3486
 2953SOL    HW111000   2.770   0.516   4.978  1.0940  1.0441 -1.2222
 2953SOL    HW211001   2.689   0.391   4.952  1.4559  0.3971  0.6802
 2953SOL     MW11002   2.711   0.473   4.931  0.2675  0.5986  0.1898
 2954SOL     OW11003   5.000   3.370   0.581 -0.1903 -0.5055  0.1539
 2954SOL    HW111004   4.963   3.326   0.657  1.9206  0.3885  1.7652
 2954SOL    HW211005   4.976   3.462   0.593 -0.5592 -0.4834 -0.7102
 2954SOL     MW11006   4.992   3.376   0.592  0.0324 -0.3884  0.2496
 2955SOL     OW11007   0.503   0.354   4.254 -0.0420 -0.0295 -0.2022
 2955SOL    HW111008   0.455   0.381   4.332  0.0827  1.0953 -0.5155
 2955SOL    HW211009   0.570   0.294   4.287  1.8526  2.6151  0.9563
 2955SOL     MW11010   0.506   0.350   4.268  0.2164  0.4530 -0.0939
 2956SOL     OW11011   2.395   2.427   2.734 -0.3692  0.0649  0.7482
 2956SOL    HW111012   2.429   2.487   2.668  0.8997 -1.1596  0.2653
 2956SOL    HW211013   2.439   2.454   2.815  0.4423 -0.3952  0.4690
 2956SOL     MW11014   2.405   2.438   2.736 -0.1030 -0.1504  0.6509
 2957SOL     OW11015   2.757   1.667   5.644  0.0080  0.2071 -0.5257
 2957SOL    HW111016   2.835   1.723   5.644  0.5081 -0.4875 -0.0924
 2957SOL    HW211017   2.762   1.619   5.561  1.6314 -2.0184  0.8038
 2957SOL     MW11018   2.767   1.668   5.633  0.2797 -0.1667 -0.2999
 2958SOL     OW11019   0.626   5.327   3.555  0.3002  0.3672 -0.2617
 2958SOL    HW111020   0.655   5.254   3.610 -1.7369 -1.0538 -1.0111
 2958SOL    HW211021   0.653   5.303   3.467 -0.9963  0.1511 -0.6126
 2958SOL     MW11022   0.633   5.314   3.551 -0.1265  0.1578 -0.4027
 2959SOL     OW11023   3.361   1.863   1.523  0.1196  0.0524 -0.0951
 2959SOL    HW111024   3.392   1.928   1.585 -0.0869 -0.1979  0.2714
 2959SOL    HW211025   3.291   1.906   1.475 -1.8293 -0.7460  1.9496
 2959SOL     MW11026   3.356   1.877   1.524 -0.1564 -0.0818  0.2134
 2960SOL     OW11027   4.698   1.409   4.129  0.3824  0.1361  0.3167
 2960SOL    HW111028   4.636   1.349   4.170  0.1208  1.1283  1.4161
 2960SOL    HW211029   4.727   1.364   4.050 -0.1104 -1.2544  0.9187
 2960SOL     MW11030   4.694   1.396   4.124  0.2861  0.0851  0.5345
 2961SOL     OW11031   0.889   4.584   3.692  0.1471 -0.1214 -0.1660
 2961SOL    HW111032   0.918   4.586   3.601 -1.0531 -2.8600 -0.6524
 2961SOL    HW211033   0.959   4.628   3.740  0.9322  1.1134 -2.3550
 2961SOL     MW11034   0.901   4.590   3.687  0.0939 -0.3133 -0.5088
 2962SOL     OW11035   5.455   5.925   3.882 -0.2971  0.0822  0.5203
 2962SOL    HW111036   5.370   5.911   3.840 -1.3033 -0.3382  2.5898
 2962SOL    HW211037   5.471   6.019   3.874 -0.8716  0.1332 -0.0448
 2962SOL     MW11038   5.446   5.935   3.876 -0.4997  0.0348  0.7126
 2963SOL     OW11039   5.227   0.239   0.474 -0.1623 -0.0263 -0.4247
 2963SOL    HW111040   5.166   0.170   0.448  0.4552 -1.4357  1.7460
 2963SOL    HW211041   5.311   0.211   0.441  0.5562 -1.6330  2.5542
 2963SOL     MW11042   5.230   0.227   0.467  0.0086 -0.4124  0.2345
 2964SOL     OW11043   2.014   0.638   0.910 -0.0126 -0.9928 -0.1853
 2964SOL    HW111044   1.935   0.595   0.878 -0.4744 -0.3777  0.1319
 2964SOL    HW211045   2.086   0.590   0.868 -0.6176  0.1861 -2.6393
 2964SOL     MW11046   2.013   0.627   0.901 -0.1490 -0.7631 -0.4588
 2965SOL     OW11047   2.396   2.377   5.393 -0.3250  0.1017 -0.2987
 2965SOL    HW111048   2.341   2.444   5.353 -1.9269 -1.1454 -0.2220
 2965SOL    HW211049   2.397   2.400   5.486 -1.7173 -0.5545 -0.1116
 2965SOL     MW11050   2.389   2.389   5.400 -0.7081 -0.1421 -0.2646
 2966SOL     OW11051   2.601   5.571   4.477 -0.0022 -0.6273  0.5988
 2966SOL    HW111052   2.591   5.524   4.395 -0.7940 -1.5503  1.2085
 2966SOL    HW211053   2.690   5.607   4.474  1.2668 -3.6556  0.8916
 2966SOL     MW11054   2.611   5.570   4.466  0.0591 -1.1330  0.7138
 2967SOL     OW11055   1.604   2.150   3.831  0.0233  0.2824 -0.1572
 2967SOL    HW111056   1.607   2.150   3.926 -0.6417  0.9506 -0.1250
 2967SOL    HW211057   1.687   2.112   3.803  0.1402 -0.0795  0.6906
 2967SOL     MW11058   1.615   2.145   3.839 -0.0468  0.3216 -0.0446
 2968SOL     OW11059   0.366   4.511   1.409 -0.0311 -0.1856 -0.0959
 2968SOL    HW111060   0.350   4.432   1.358 -0.2412  0.4922 -1.0995
 2968SOL    HW211061   0.394   4.479   1.495  0.8255 -1.3329 -0.7911
 2968SOL     MW11062   0.368   4.497   1.414  0.0517 -0.2456 -0.3133
 2969SOL     OW11063   3.962   0.010   3.858  0.5299 -0.4880 -0.0272
 2969SOL    HW111064   3.873   0.005   3.824  0.8780 -1.1028 -0.8750
 2969SOL    HW211065   4.011  -0.054   3.806  1.3192 -0.6367  0.8851
 2969SOL     MW11066   3.957   0.001   3.847  0.6757 -0.5858 -0.0188
 2970SOL     OW11067   5.514   5.019   2.315  0.5638  0.3534 -0.2310
 2970SOL    HW111068   5.437   4.965   2.333  0.3067  1.0015  0.6222
 2970SOL    HW211069   5.529   5.067   2.396  0.2830  2.2103 -1.2693
 2970SOL     MW11070   5.506   5.018   2.328  0.4950  0.6738 -0.2546
 2971SOL     OW11071   3.040   2.510   1.857 -0.6627 -0.2385 -0.6014
 2971SOL    HW111072   3.057   2.572   1.787 -1.2802 -0.5445 -1.0210
 2971SOL    HW211073   3.019   2.428   1.812  0.5875 -0.8704 -0.0512
 2971SOL     MW11074   3.040   2.507   1.842 -0.5817 -0.3588 -0.5846
 2972SOL     OW11075   1.236   0.335   3.203  0.0590  0.1757  0.5069
 2972SOL    HW111076   1.170   0.314   3.268 -0.4881  0.4377  0.0370
 2972SOL    HW211077   1.250   0.253   3.156 -2.0241  0.8117 -1.2773
 2972SOL     MW11078   1.229   0.322   3.205 -0.2778  0.2907  0.2182
 2973SOL     OW11079   2.133   1.748   2.440  1.1233 -0.1345 -0.1672
 2973SOL    HW111080   2.089   1.673   2.400 -1.9661  1.5436 -0.0767
 2973SOL    HW211081   2.128   1.817   2.374 -0.9048  1.5908  1.7113
 2973SOL     MW11082   2.127   1.747   2.427  0.4683  0.3010  0.0851
 2974SOL     OW11083   3.596   5.699   1.885 -0.5737 -0.8231 -0.1996
 2974SOL    HW111084   3.675   5.656   1.917 -0.7757 -1.0711 -0.0233
 2974SOL    HW211085   3.525   5.639   1.909 -0.7178 -1.0636 -1.1999
 2974SOL     MW11086   3.597   5.686   1.892 -0.6180 -0.8855 -0.3052
 2975SOL     OW11087   1.530   3.254   5.689  0.3275  0.9728 -0.3430
 2975SOL    HW111088   1.624   3.264   5.705  0.4265 -1.1011  0.4245
 2975SOL    HW211089   1.489   3.301   5.761  0.7985 -0.8134  1.1349
 2975SOL     MW11090   1.537   3.261   5.700  0.4005  0.4785 -0.0558
 2976SOL     OW11091   5.038   2.959   2.052  0.1400  0.0233  0.2016
 2976SOL    HW111092   5.097   3.035   2.056  0.9971 -0.4892 -2.1278
 2976SOL    HW211093   4.951   2.998   2.039  0.5192  0.6355 -0.5731
 2976SOL     MW11094   5.034   2.974   2.051  0.2980  0.0362 -0.1957
 2977SOL     OW11095   0.992   2.148   3.503 -0.2794 -0.5561 -0.1195
 2977SOL    HW111096   1.024   2.068   3.545 -0.6612 -0.2251  0.8249
 2977SOL    HW211097   1.019   2.219   3.563 -1.9749 -0.1950  0.2396
 2977SOL     MW11098   1.000   2.147   3.516 -0.5453 -0.4675  0.0474
 2978SOL     OW11099   1.556   1.138   2.903 -0.4716 -0.2512 -0.2063
 2978SOL    HW111100   1.538   1.208   2.966 -1.2993 -2.5305  2.1865
 2978SOL    HW211101   1.470   1.105   2.878 -0.0982 -0.1996 -1.6148
 2978SOL     MW11102   1.543   1.143   2.908 -0.5296 -0.5366 -0.0806
 2979SOL     OW11103   5.305   0.184   5.791 -0.2396  0.6241 -0.4533
 2979SOL    HW111104   5.274   0.094   5.796 -0.7311  0.7702 -0.9077
 2979SOL    HW211105   5.246   0.234   5.848  0.2881  0.5911  0.1301
 2979SOL     MW11106   5.294   0.179   5.799 -0.2351  0.6386 -0.4368
 2980SOL     OW11107   1.194   3.879   4.941 -0.1915 -0.0051  0.4079
 2980SOL    HW111108   1.224   3.954   4.890 -0.3802  0.0061  0.3140
 2980SOL    HW211109   1.100   3.874   4.924 -0.3004  0.1551  0.9554
 2980SOL     MW11110   1.186   3.888   4.933 -0.2296  0.0169  0.4663
 2981SOL     OW11111   3.724   5.590   4.229  0.3893 -0.4287  0.1746
 2981SOL    HW111112   3.714   5.681   4.255  1.1679 -0.5490  0.9446
 2981SOL    HW211113   3.661   5.578   4.158  1.4563  1.1558 -1.0775
 2981SOL     MW11114   3.715   5.600   4.223  0.6256 -0.2413  0.1130
 2982SOL     OW11115   2.617   5.695   0.860  0.3023  0.2501  0.1475
 2982SOL    HW111116   2.567   5.736   0.789 -1.8617 -2.9862 -0.3122
 2982SOL    HW211117   2.692   5.655   0.816  0.9637  1.4231  0.2121
 2982SOL     MW11118   2.620   5.695   0.845  0.1099 -0.0143  0.0969
 2983SOL     OW11119   3.699   4.677   4.748  0.0812  0.2748 -0.3352
 2983SOL    HW111120   3.612   4.671   4.786  0.1348  1.5149 -0.0113
 2983SOL    HW211121   3.691   4.743   4.679  0.1891 -1.3263 -1.9401
 2983SOL     MW11122   3.687   4.685   4.744  0.1018  0.2289 -0.4992
 2984SOL     OW11123   4.674   2.301   2.954  0.0015  0.3327  0.2230
 2984SOL    HW111124   4.642   2.212   2.942  2.1724 -0.4210 -0.1907
 2984SOL    HW211125   4.699   2.304   3.047 -0.8994  0.7941  0.4523
 2984SOL     MW11126   4.673   2.290   2.965  0.1636  0.2954  0.1996
 2985SOL     OW11127   2.069   4.527   3.197  0.2254  0.2117 -0.5418
 2985SOL    HW111128   1.975   4.535   3.185 -0.1868 -2.0715  0.8194
 2985SOL    HW211129   2.107   4.576   3.124 -1.9647  2.4929 -0.2262
 2985SOL     MW11130   2.062   4.534   3.186 -0.1078  0.2117 -0.3269
 2986SOL     OW11131   3.184   1.291   3.482 -0.2326  0.1292 -0.7978
 2986SOL    HW111132   3.183   1.386   3.493  2.2817  0.2351 -1.1120
 2986SOL    HW211133   3.226   1.257   3.561 -1.8314 -0.8064 -0.3182
 2986SOL     MW11134   3.189   1.298   3.494 -0.1152  0.0229 -0.7765
 2987SOL     OW11135   1.021   1.910   3.658  0.1844  0.0241  0.5520
 2987SOL    HW111136   0.963   1.855   3.606  1.6616  0.5490 -1.7530
 2987SOL    HW211137   1.085   1.850   3.695  0.7932 -0.0534 -0.5856
 2987SOL     MW11138   1.022   1.895   3.656  0.4514  0.0814  0.1111
 2988SOL     OW11139   1.456   3.735   4.756  1.0456  0.1987 -0.2652
 2988SOL    HW111140   1.498   3.666   4.704  2.5708  0.6255  0.3787
 2988SOL    HW211141   1.362   3.721   4.742  1.2877 -2.5173  0.4932
 2988SOL     MW11142   1.449   3.724   4.748  1.2717 -0.0944 -0.0858
 2989SOL     OW11143   1.740   2.628   0.698 -0.0802  0.3152 -0.4125
 2989SOL    HW111144   1.834   2.612   0.696 -0.2488 -0.6958 -0.4084
 2989SOL    HW211145   1.700   2.541   0.700 -0.9910  0.7471  0.7670
 2989SOL     MW11146   1.747   2.615   0.698 -0.2184  0.2410 -0.2609
 2990SOL     OW11147   4.466   5.460   1.369 -0.4083 -0.5035 -0.4284
 2990SOL    HW111148   4.398   5.465   1.436 -0.2558  0.2489 -0.3231
 2990SOL    HW211149   4.454   5.539   1.316  0.9555  0.1350  0.1583
 2990SOL     MW11150   4.456   5.471   1.371 -0.2141 -0.3252 -0.3399
 2991SOL     OW11151   3.413   3.331   5.818 -0.5299  0.2521 -0.2035
 2991SOL    HW111152   3.317   3.332   5.814 -0.5727 -1.4451  0.0527
 2991SOL    HW211153   3.433   3.347   5.910 -0.6181 -1.2333  0.0753
 2991SOL     MW11154   3.403   3.333   5.829 -0.5467 -0.1552 -0.1351
 2992SOL     OW11155   0.372   0.583   0.384 -0.8864 -0.3640 -0.8864
 2992SOL    HW111156   0.416   0.641   0.323  0.9946  1.4498  2.0907
 2992SOL    HW211157   0.440   0.522   0.414 -1.0555  0.5698  1.5056
 2992SOL     MW11158   0.386   0.582   0.380 -0.6672 -0.0122 -0.1990
 2993SOL     OW11159   4.535   0.506   2.301  0.2017 -0.2709 -0.2308
 2993SOL    HW111160   4.540   0.480   2.209 -2.3096 -0.3381 -0.3713
 2993SOL    HW211161   4.460   0.459   2.336  1.2178 -0.3628  1.9177
 2993SOL     MW11162   4.526   0.497   2.293  0.0105 -0.2912  0.0262
 2994SOL     OW11163   5.888   1.770   2.188 -0.1064  0.0977  0.0576
 2994SOL    HW111164   5.935   1.699   2.232 -1.2629 -1.9514 -1.8531
 2994SOL    HW211165   5.796   1.754   2.208 -0.3859  1.0065 -0.4607
 2994SOL     MW11166   5.882   1.759   2.196 -0.2904 -0.0482 -0.2534
 2995SOL     OW11167   3.102   0.839   1.750 -0.3208  0.0015  0.4285
 2995SOL    HW111168   3.154   0.909   1.789  0.8462 -0.8390  0.4110
 2995SOL    HW211169   3.120   0.846   1.656 -0.4216 -0.1335  0.3994
 2995SOL     MW11170   3.111   0.849   1.743 -0.1845 -0.1234  0.4225
 2996SOL     OW11171   2.108   1.277   0.931  0.4701 -0.5211 -0.7467
 2996SOL    HW111172   2.089   1.203   0.989  3.2256  0.3872  1.4703
 2996SOL    HW211173   2.086   1.246   0.844 -1.8838 -2.6570  0.5277
 2996SOL     MW11174   2.103   1.264   0.928  0.5217 -0.6783 -0.2998
 2997SOL     OW11175   0.644   1.813   5.560  0.2853 -0.2877  0.3930
 2997SOL    HW111176   0.715   1.842   5.617  0.7077  0.2321 -0.3812
 2997SOL    HW211177   0.665   1.722   5.538  1.6484  0.3951 -1.2302
 2997SOL     MW11178   0.655   1.805   5.564  0.5139 -0.1338  0.0863
 2998SOL     OW11179   4.178   5.807   5.399 -0.6755  0.4252  0.2866
 2998SOL    HW111180   4.224   5.761   5.329 -0.5282  0.9841  0.0127
 2998SOL    HW211181   4.091   5.824   5.363  0.1473  2.8241 -0.6819
 2998SOL     MW11182   4.173   5.804   5.385 -0.5512  0.8039  0.1278
 2999SOL     OW11183   3.307   2.387   2.320 -0.0671  0.2234 -0.3837
 2999SOL    HW111184   3.291   2.466   2.371  1.9738  1.0431 -0.9804
 2999SOL    HW211185   3.259   2.400   2.238  0.6328  1.0492 -0.6642
 2999SOL     MW11186   3.299   2.399   2.316  0.2837  0.4339 -0.4959
 3000SOL     OW11187   2.845   2.498   5.416  0.0201 -0.8180  0.7316
 3000SOL    HW111188   2.776   2.496   5.350  2.1773  0.9773 -1.6425
 3000SOL    HW211189   2.800   2.525   5.497 -2.5309 -2.4227 -0.0942
 3000SOL     MW11190   2.831   2.501   5.418 -0.0303 -0.7935  0.3223
 3001SOL     OW11191   4.153   1.071   4.973 -0.6496 -0.2394 -0.5023
 3001SOL    HW111192   4.156   1.052   4.879 -2.4120  2.2121 -1.1257
 3001SOL    HW211193   4.067   1.040   5.001 -0.4952 -0.1287  0.0976
 3001SOL     MW11194   4.142   1.065   4.964 -0.8554  0.0886 -0.5050
 3002SOL     OW11195   5.057   3.148   1.625  0.6250  0.2163 -0.2835
 3002SOL    HW111196   5.049   3.209   1.698  0.3866  1.4479 -1.3329
 3002SOL    HW211197   4.983   3.088   1.636  0.7487  0.2226  0.6381
 3002SOL     MW11198   5.047   3.148   1.636  0.6104  0.3748 -0.2998
 3003SOL     OW11199   0.957   1.774   3.291 -0.2809 -0.1341 -0.2184
 3003SOL    HW111200   1.049   1.795   3.305 -0.0754 -1.5183  0.7614
 3003SOL    HW211201   0.918   1.779   3.379 -1.5548  2.2329 -0.8844
 3003SOL     MW11202   0.963   1.777   3.304 -0.4177 -0.0082 -0.1786
 3004SOL     OW11203   4.895   0.700   3.617 -0.0961 -0.8107  0.1552
 3004SOL    HW111204   4.954   0.646   3.670 -1.4122 -0.6231  1.8362
 3004SOL    HW211205   4.855   0.639   3.556  0.1132 -1.3377  0.5373
 3004SOL     MW11206   4.898   0.685   3.616 -0.2379 -0.8541  0.4191
 3005SOL     OW11207   1.177   5.272   4.929 -0.0273  0.0211  0.4844
 3005SOL    HW111208   1.195   5.356   4.886 -1.6421  0.6267  0.9534
 3005SOL    HW211209   1.204   5.206   4.865 -0.4732  0.9056 -0.6267
 3005SOL     MW11210   1.183   5.274   4.915 -0.2910  0.2122  0.4025
 3006SOL     OW11211   5.216   3.660   0.637  0.6896  0.5196  0.8668
 3006SOL    HW111212   5.248   3.738   0.593 -1.1214  0.4059 -0.7162
 3006SOL    HW211213   5.129   3.683   0.668 -0.0236 -0.9837  0.0400
 3006SOL     MW11214   5.209   3.673   0.636  0.3667  0.3126  0.5583
 3007SOL     OW11215   4.531   2.636   2.620  0.9005 -0.3949  0.3478
 3007SOL    HW111216   4.548   2.721   2.579  1.9082 -0.1976  1.1667
 3007SOL    HW211217   4.508   2.579   2.546 -1.3393  0.9417 -0.0412
 3007SOL     MW11218   4.530   2.640   2.605  0.7434 -0.1984  0.4027
 3008SOL     OW11219   1.791   4.279   1.906 -0.2412 -0.9569 -0.3089
 3008SOL    HW111220   1.756   4.348   1.962  1.5009  0.6795 -1.1632
 3008SOL    HW211221   1.721   4.262   1.842 -1.4054 -1.3401  1.0494
 3008SOL     MW11222   1.778   4.286   1.905 -0.1671 -0.7968 -0.2443
 3009SOL     OW11223   3.261   3.551   1.953 -0.4116  0.6425 -0.1089
 3009SOL    HW111224   3.289   3.495   1.880 -2.6414  0.4798 -0.8873
 3009SOL    HW211225   3.265   3.640   1.917  1.1383  0.8186  0.4687
 3009SOL     MW11226   3.265   3.555   1.939 -0.4988  0.6440 -0.1346
 3010SOL     OW11227   1.566   5.739   2.623 -0.0369  0.1292 -0.6500
 3010SOL    HW111228   1.490   5.709   2.672 -0.3569 -0.2785 -1.3888
 3010SOL    HW211229   1.587   5.666   2.565  0.2922  0.6380 -1.1733
 3010SOL     MW11230   1.559   5.726   2.622 -0.0358  0.1421 -0.8113
 3011SOL     OW11231   0.277   1.551   3.118  0.0553 -0.1614  0.0156
 3011SOL    HW111232   0.312   1.508   3.040  0.5582  1.2424 -0.5510
 3011SOL    HW211233   0.341   1.619   3.138 -0.9871  0.6507  0.5978
 3011SOL     MW11234   0.290   1.554   3.111 -0.0138  0.1223  0.0179
 3012SOL     OW11235   1.304   5.042   0.599  0.3732 -0.0370 -0.3340
 3012SOL    HW111236   1.359   5.086   0.664 -0.5281 -0.4631  0.7450
 3012SOL    HW211237   1.347   4.957   0.586 -0.0011 -0.3697  0.5061
 3012SOL     MW11238   1.316   5.037   0.606  0.2099 -0.1345 -0.0883
 3013SOL     OW11239   2.345   4.322   5.609 -0.0439 -0.6443  0.5402
 3013SOL    HW111240   2.409   4.267   5.564 -0.3884  0.1678 -0.9801
 3013SOL    HW211241   2.333   4.281   5.694  1.5222 -1.5387  0.3413
 3013SOL     MW11242   2.351   4.310   5.614  0.1125 -0.6552  0.3204
 3014SOL     OW11243   5.348   5.786   0.991 -0.1134  0.3489  0.4328
 3014SOL    HW111244   5.253   5.776   0.986  0.1050 -1.0602 -1.2876
 3014SOL    HW211245   5.372   5.823   0.906  1.2204 -2.3790 -0.4320
 3014SOL     MW11246   5.338   5.790   0.980  0.0854 -0.1807  0.1019
 3015SOL     OW11247   0.080   5.462   1.685  0.4569  0.0524  0.9536
 3015SOL    HW111248   0.076   5.376   1.642  2.6061  0.9674 -1.1533
 3015SOL    HW211249   0.055   5.524   1.617  0.1935  1.2335  2.1082
 3015SOL     MW11250   0.076   5.459   1.671  0.6983  0.3204  0.8317
 3016SOL     OW11251   2.366   5.249   3.625 -0.2223 -0.3868  0.0107
 3016SOL    HW111252   2.308   5.259   3.549 -1.4660  1.0567  1.1404
 3016SOL    HW211253   2.429   5.181   3.597 -2.1927 -1.7248 -1.3552
 3016SOL     MW11254   2.367   5.241   3.611 -0.6337 -0.3734 -0.0196
 3017SOL     OW11255   5.209   5.234   5.700  0.3866 -0.3759  0.8139
 3017SOL    HW111256   5.280   5.292   5.672 -1.5068  1.2059 -0.9034
 3017SOL    HW211257   5.197   5.174   5.626 -1.3614  0.6860  0.1686
 3017SOL     MW11258   5.216   5.234   5.687 -0.0792 -0.0377  0.5116
 3018SOL     OW11259   4.941   2.419   0.473  0.1344 -0.4250 -0.6205
 3018SOL    HW111260   5.006   2.490   0.469 -0.2146 -0.1500 -1.5973
 3018SOL    HW211261   4.872   2.452   0.529  0.8858 -0.7604  0.5163
 3018SOL     MW11262   4.941   2.432   0.480  0.1860 -0.4327 -0.6000
 3019SOL     OW11263   5.607   0.269   5.061 -0.0029  0.5456 -0.5614
 3019SOL    HW111264   5.570   0.349   5.099  3.1748  2.7174 -1.8016
 3019SOL    HW211265   5.583   0.272   4.969  1.4569  0.9199 -0.9435
 3019SOL     MW11266   5.599   0.280   5.054  0.5908  0.8716 -0.7691
 3020SOL     OW11267   2.216   3.205   0.784 -0.3801 -0.0158 -0.8610
 3020SOL    HW111268   2.194   3.298   0.794 -1.1040 -0.2825  0.0019
 3020SOL    HW211269   2.270   3.202   0.705  2.1553  1.5684  0.7170
 3020SOL     MW11270   2.220   3.217   0.775 -0.1483  0.1528 -0.5485
 3021SOL     OW11271   1.882   4.707   5.836 -0.2345 -0.5617 -0.2788
 3021SOL    HW111272   1.930   4.661   5.768  2.0615  0.4755  0.6110
 3021SOL    HW211273   1.919   4.676   5.918 -3.6761 -2.5788  0.6201
 3021SOL     MW11274   1.893   4.697   5.838 -0.3811 -0.6871 -0.0501
 3022SOL     OW11275   2.915   2.139   3.437 -0.0812  0.6925  0.0812
 3022SOL    HW111276   2.971   2.088   3.495 -1.5791 -3.1598 -1.7201
 3022SOL    HW211277   2.969   2.158   3.361  0.1059  0.7838  0.2364
 3022SOL     MW11278   2.929   2.135   3.435 -0.2487  0.2110 -0.1295
 3023SOL     OW11279   4.695   3.601   0.128 -0.3435 -0.2664 -0.8189
 3023SOL    HW111280   4.786   3.608   0.097 -0.3414 -1.8252 -1.2132
 3023SOL    HW211281   4.681   3.507   0.138 -1.4209  0.0412  0.7558
 3023SOL     MW11282   4.705   3.590   0.125 -0.4811 -0.4265 -0.6678
 3024SOL     OW11283   1.801   3.190   5.094  0.0360  0.2767 -0.2360
 3024SOL    HW111284   1.780   3.099   5.075  1.1028  0.0037 -0.1418
 3024SOL    HW211285   1.724   3.239   5.066 -0.2542 -0.5847 -0.9554
 3024SOL     MW11286   1.788   3.185   5.088  0.1354  0.1316 -0.3157
 3025SOL     OW11287   1.264   1.049   2.319 -0.3468 -0.4261 -0.2824
 3025SOL    HW111288   1.273   1.088   2.232  0.8132  2.6707  1.1424
 3025SOL    HW211289   1.174   1.069   2.344  0.3426  1.8111  0.5847
 3025SOL     MW11290   1.254   1.057   2.311 -0.1100  0.2568  0.0110
 3026SOL     OW11291   2.742   4.888   4.435  0.1921 -0.6885  0.8388
 3026SOL    HW111292   2.741   4.831   4.513 -1.0579 -0.7501  0.7987
 3026SOL    HW211293   2.740   4.977   4.471  0.5068 -0.7039  0.8913
 3026SOL     MW11294   2.741   4.892   4.450  0.0725 -0.6986  0.8402
 3027SOL     OW11295   3.347   0.721   2.664  0.0552 -0.0285 -0.0950
 3027SOL    HW111296   3.266   0.747   2.709 -0.8238 -0.9387 -1.1130
 3027SOL    HW211297   3.358   0.787   2.595 -0.5298 -0.6288 -0.7699
 3027SOL     MW11298   3.338   0.733   2.661 -0.1323 -0.2218 -0.3119
 3028SOL     OW11299   4.106   0.799   2.924  0.3662 -0.2539 -0.5076
 3028SOL    HW111300   4.033   0.740   2.910  0.6885 -0.3608 -1.7970
 3028SOL    HW211301   4.100   0.823   3.016 -0.8155 -0.8881 -0.4087
 3028SOL     MW11302   4.096   0.795   2.934  0.2561 -0.3489 -0.6599
 3029SOL     OW11303   3.075   0.252   4.817 -0.0780 -0.3315  0.2674
 3029SOL    HW111304   3.155   0.263   4.868 -0.6379  2.4820  0.6109
 3029SOL    HW211305   3.022   0.192   4.869  1.0843 -0.8347  0.8956
 3029SOL     MW11306   3.078   0.246   4.831 -0.0010 -0.0358  0.3915
 3030SOL     OW11307   1.976   3.155   3.463  0.3988  0.1396 -0.0660
 3030SOL    HW111308   1.901   3.208   3.435  0.6808 -0.0826 -1.2815
 3030SOL    HW211309   2.038   3.162   3.391  0.8740 -1.0073  0.2186
 3030SOL     MW11310   1.974   3.163   3.450  0.4958 -0.0355 -0.1850
 3031SOL     OW11311   2.915   2.422   3.981  0.4349 -0.3673  0.1143
 3031SOL    HW111312   2.830   2.440   3.939  0.5246 -0.5045 -0.1321
 3031SOL    HW211313   2.979   2.468   3.926  0.5740 -0.7063 -0.0092
 3031SOL     MW11314   2.912   2.430   3.968  0.4644 -0.4282  0.0670
 3032SOL     OW11315   4.482   1.249   3.433 -0.4543  0.3309 -0.4972
 3032SOL    HW111316   4.544   1.264   3.362  0.5310  0.5944  0.3992
 3032SOL    HW211317   4.471   1.335   3.474 -0.7074  0.1115 -0.0934
 3032SOL     MW11318   4.489   1.262   3.429 -0.3610  0.3366 -0.3307
 3033SOL     OW11319   1.469   1.382   5.553 -0.4920  0.2005  0.0751
 3033SOL    HW111320   1.537   1.373   5.620 -1.0452 -1.4212  0.4287
 3033SOL    HW211321   1.390   1.348   5.593 -1.0123 -0.0382 -1.1346
 3033SOL     MW11322   1.468   1.377   5.566 -0.6294 -0.0377 -0.0348
 3034SOL     OW11323   1.905   4.777   2.323  0.3998  0.8362  0.0984
 3034SOL    HW111324   1.856   4.859   2.322 -1.1250 -0.0614  0.5521
 3034SOL    HW211325   1.867   4.725   2.253  1.4668  0.5583 -0.2918
 3034SOL     MW11326   1.894   4.780   2.314  0.3412  0.6852  0.1063
 3035SOL     OW11327   5.866   5.045   0.003 -0.1116 -0.2342  0.6037
 3035SOL    HW111328   5.907   4.982   0.063 -1.5351 -0.4749  1.3568
 3035SOL    HW211329   5.781   5.007  -0.017  0.8963 -0.8321 -2.7336
 3035SOL     MW11330   5.860   5.032   0.008 -0.1645 -0.3414  0.2729
 3036SOL     OW11331   5.253   1.085   1.533 -0.5057 -0.2492 -0.1881
 3036SOL    HW111332   5.303   1.143   1.591 -1.1844  0.6548 -0.4939
 3036SOL    HW211333   5.184   1.141   1.497 -0.4543 -0.9512 -1.4027
 3036SOL     MW11334   5.251   1.100   1.536 -0.5865 -0.2234 -0.3827
 3037SOL     OW11335   1.845   2.776   2.202 -0.0968 -0.4592 -0.0337
 3037SOL    HW111336   1.803   2.843   2.147  0.6532  0.0134 -0.0367
 3037SOL    HW211337   1.792   2.775   2.282  1.3207  1.9406  1.0102
 3037SOL     MW11338   1.833   2.785   2.206  0.1807 -0.0916  0.0999
 3038SOL     OW11339   1.526   5.003   1.070 -0.2464 -0.0152 -0.3425
 3038SOL    HW111340   1.476   4.981   1.149 -1.6030  1.8431 -0.6652
 3038SOL    HW211341   1.607   5.042   1.103  0.5888 -2.1095  0.1613
 3038SOL     MW11342   1.530   5.005   1.085 -0.3132 -0.0453 -0.3192
 3039SOL     OW11343   3.645   1.315   5.260  0.2552 -0.0294  0.0913
 3039SOL    HW111344   3.689   1.344   5.340  0.1547 -1.0103  0.5042
 3039SOL    HW211345   3.705   1.341   5.189  0.1839  1.1446  0.4475
 3039SOL     MW11346   3.658   1.322   5.261  0.2332 -0.0046  0.1898
 3040SOL     OW11347   1.142   3.847   1.103  0.2500  0.1237 -0.0601
 3040SOL    HW111348   1.068   3.812   1.053  0.7280 -0.5650 -0.3014
 3040SOL    HW211349   1.193   3.769   1.127 -0.0202  0.4357  1.5641
 3040SOL     MW11350   1.139   3.832   1.100  0.2766  0.0756  0.1169
 3041SOL     OW11351   1.137   2.321   1.175 -0.1539  0.2542 -0.5578
 3041SOL    HW111352   1.103   2.245   1.223 -1.2173  0.6817 -0.6214
 3041SOL    HW211353   1.180   2.283   1.098 -2.3207 -0.2093 -1.5872
 3041SOL     MW11354   1.138   2.306   1.171 -0.5674  0.2496 -0.6979
 3042SOL     OW11355   1.578   4.715   2.559  0.1456  0.0319  0.2196
 3042SOL    HW111356   1.628   4.641   2.524 -3.1476 -2.2941  0.1406
 3042SOL    HW211357   1.588   4.708   2.654 -1.1018 -1.2896  0.2774
 3042SOL     MW11358   1.586   4.705   2.566 -0.4358 -0.4349  0.2167
 3043SOL     OW11359   2.300   0.899   4.370 -0.7637 -0.8788 -0.0471
 3043SOL    HW111360   2.230   0.845   4.405 -0.2868 -1.2126  0.3925
 3043SOL    HW211361   2.256   0.980   4.342 -1.2531 -0.9079  0.6240
 3043SOL     MW11362   2.285   0.902   4.371 -0.7651 -0.9254  0.0949
 3044SOL     OW11363   1.244   0.494   5.654 -0.1212 -0.4453  0.1309
 3044SOL    HW111364   1.328   0.482   5.609 -0.4515  0.8914 -0.8823
 3044SOL    HW211365   1.261   0.566   5.716 -0.4435 -0.3668  0.1250
 3044SOL     MW11366   1.257   0.502   5.656 -0.2048 -0.2641  0.0005
 3045SOL     OW11367   5.149   0.364   4.438  0.4380  0.0252 -0.0361
 3045SOL    HW111368   5.091   0.335   4.508  0.8065 -0.2360  0.1576
 3045SOL    HW211369   5.227   0.397   4.483  0.3226  0.6577 -0.2811
 3045SOL     MW11370   5.152   0.365   4.453  0.4706  0.0728 -0.0429
 3046SOL     OW11371   3.528   3.038   0.832  0.2043  0.0318  0.0500
 3046SOL    HW111372   3.455   3.073   0.782 -0.0338 -0.3207  0.1446
 3046SOL    HW211373   3.595   3.106   0.828 -1.6906  2.3021  3.5713
 3046SOL     MW11374   3.527   3.051   0.825 -0.0689  0.2773  0.5129
 3047SOL     OW11375   5.588   5.188   2.107 -0.1495  0.6637  0.2957
 3047SOL    HW111376   5.569   5.111   2.161 -1.1436  0.2982 -0.5553
 3047SOL    HW211377   5.625   5.153   2.026  0.9527  1.1872  0.5594
 3047SOL     MW11378   5.590   5.174   2.104 -0.1354  0.6838  0.2203
 3048SOL     OW11379   1.689   4.649   4.862 -0.0718 -0.0752 -0.4393
 3048SOL    HW111380   1.738   4.620   4.786 -1.2929 -1.0103 -0.8879
 3048SOL    HW211381   1.611   4.692   4.826 -0.9326 -1.0176  0.2662
 3048SOL     MW11382   1.685   4.651   4.848 -0.3382 -0.3157 -0.4067
 3049SOL     OW11383   3.424   0.354   1.062  0.7954  0.1217 -0.2505
 3049SOL    HW111384   3.372   0.380   1.139  3.4223  0.4820  1.4821
 3049SOL    HW211385   3.443   0.436   1.017 -1.3626 -0.1580 -1.7690
 3049SOL     MW11386   3.420   0.368   1.066  0.8552  0.1320 -0.2230
 3050SOL     OW11387   1.556   4.439   2.996  0.6159  0.3716 -0.8696
 3050SOL    HW111388   1.513   4.524   2.983  1.2885  1.0538  1.1806
 3050SOL    HW211389   1.495   4.376   2.959 -1.2317  1.5168  0.1257
 3050SOL     MW11390   1.543   4.442   2.990  0.4654  0.6051 -0.4799
 3051SOL     OW11391   1.401   4.927   1.294 -0.1666  0.0516  0.8210
 3051SOL    HW111392   1.408   4.959   1.384  0.2585  0.7706  0.5439
 3051SOL    HW211393   1.307   4.925   1.276 -0.2161  0.7965  0.9753
 3051SOL     MW11394   1.390   4.931   1.303 -0.1185  0.2389  0.8053
 3052SOL     OW11395   0.187   3.255   3.068  0.1504 -0.1629  0.0044
 3052SOL    HW111396   0.118   3.237   3.004  0.9180 -1.8822 -0.3611
 3052SOL    HW211397   0.142   3.256   3.153 -0.7596  1.4809 -0.4850
 3052SOL     MW11398   0.172   3.253   3.071  0.1321 -0.1726 -0.1049
 3053SOL     OW11399   2.013   2.566   5.003  0.0570  0.1024  0.3425
 3053SOL    HW111400   2.055   2.636   5.052 -1.1624  0.3081  1.0983
 3053SOL    HW211401   1.935   2.606   4.965 -1.2029 -1.1005  1.6247
 3053SOL     MW11402   2.008   2.580   5.004 -0.2606 -0.0250  0.6032
 3054SOL     OW11403   0.748   3.027   4.628  0.1148  0.1355 -0.0593
 3054SOL    HW111404   0.665   3.060   4.661  0.7460  1.7122  0.0025
 3054SOL    HW211405   0.810   3.098   4.643  1.4121 -0.9013 -0.3885
 3054SOL     MW11406   0.745   3.040   4.634  0.3617  0.2048 -0.0939
 3055SOL     OW11407   3.504   2.871   0.236 -0.2792 -0.0979 -0.0551
 3055SOL    HW111408   3.484   2.800   0.175  0.6636  1.4742 -2.2970
 3055SOL    HW211409   3.422   2.890   0.280 -1.1475 -0.8762 -1.3141
 3055SOL     MW11410   3.491   2.865   0.234 -0.2697  0.0036 -0.5033
 3056SOL     OW11411   0.755   4.692   2.030  0.5938 -0.0498 -0.6775
 3056SOL    HW111412   0.824   4.715   2.092  0.5056  0.6012 -0.8116
 3056SOL    HW211413   0.792   4.624   1.975  0.6182 -0.7579  0.1998
 3056SOL     MW11414   0.768   4.686   2.031  0.5857 -0.0567 -0.5825
 3057SOL     OW11415   2.446   4.795   5.780  0.2974 -1.0920  0.0778
 3057SOL    HW111416   2.473   4.842   5.859 -1.4992 -0.0150  0.0547
 3057SOL    HW211417   2.381   4.732   5.811  0.2563 -1.2887 -0.4124
 3057SOL     MW11418   2.441   4.793   5.794  0.0620 -0.9789  0.0119
 3058SOL     OW11419   2.652   2.639   5.570  0.5599  0.0266  0.4291
 3058SOL    HW111420   2.563   2.612   5.592  0.4177 -0.6834 -0.9479
 3058SOL    HW211421   2.700   2.634   5.652 -0.8856  1.2833  1.3673
 3058SOL     MW11422   2.647   2.635   5.583  0.3567  0.0968  0.3729
 3059SOL     OW11423   3.792   0.490   1.466 -0.0624 -0.3335  0.2692
 3059SOL    HW111424   3.815   0.403   1.435  2.7149  1.6028 -3.4677
 3059SOL    HW211425   3.708   0.509   1.426 -0.2277 -0.9209  0.3387
 3059SOL     MW11426   3.785   0.481   1.457  0.2720 -0.1608 -0.2004
 3060SOL     OW11427   2.726   5.544   0.325  0.1266  1.0053  0.2837
 3060SOL    HW111428   2.648   5.547   0.269  0.5435  2.1844 -0.2553
 3060SOL    HW211429   2.741   5.451   0.340 -2.4688  0.8286  1.9496
 3060SOL     MW11430   2.718   5.532   0.320 -0.1521  1.1339  0.4280
 3061SOL     OW11431   4.722   4.631   4.332 -0.6756  0.3263 -0.1715
 3061SOL    HW111432   4.738   4.543   4.367  1.3956  1.8048  2.8152
 3061SOL    HW211433   4.627   4.641   4.334 -1.0091 -2.2224 -1.6220
 3061SOL     MW11434   4.712   4.621   4.337 -0.4530  0.1898  0.0248
 3062SOL     OW11435   5.162   4.717   0.584 -0.4349  0.2669  0.0184
 3062SOL    HW111436   5.145   4.811   0.579  0.1843  0.3591 -0.4259
 3062SOL    HW211437   5.249   4.706   0.547  0.3190 -0.2411  1.8994
 3062SOL     MW11438   5.171   4.727   0.578 -0.2594  0.2136  0.2023
 3063SOL     OW11439   0.990   5.227   0.297  0.5310  0.2667  0.3309
 3063SOL    HW111440   1.061   5.289   0.310  1.2156 -0.4917  0.2604
 3063SOL    HW211441   0.939   5.263   0.224  0.4376  1.1629  0.8330
 3063SOL     MW11442   0.992   5.239   0.290  0.6067  0.2847  0.3862
 3064SOL     OW11443   5.444   1.145   3.177  0.0500  0.7372  0.6191
 3064SOL    HW111444   5.374   1.132   3.241 -0.4604 -2.1411 -0.4713
 3064SOL    HW211445   5.516   1.091   3.209  0.2661  0.3342 -0.5377
 3064SOL     MW11446   5.444   1.137   3.189  0.0124  0.3171  0.3314
 3065SOL     OW11447   0.362   0.424   0.848 -0.1441 -0.4710 -0.3486
 3065SOL    HW111448   0.449   0.431   0.888 -0.1799  0.3126 -0.3930
 3065SOL    HW211449   0.319   0.354   0.896 -0.4289  0.9022  1.4439
 3065SOL     MW11450   0.368   0.416   0.859 -0.1851 -0.1949 -0.1248
 3066SOL     OW11451   3.204   2.860   0.978 -0.6692 -0.1003  0.3200
 3066SOL    HW111452   3.229   2.826   1.064 -0.2801 -2.2528 -0.6131
 3066SOL    HW211453   3.113   2.833   0.967 -0.9242  0.7390  0.3110
 3066SOL     MW11454   3.195   2.852   0.988 -0.6518 -0.2687  0.1994
 3067SOL     OW11455   4.499   5.587   2.752  0.3170 -0.1506  0.1026
 3067SOL    HW111456   4.410   5.618   2.736  0.3986 -0.0384 -0.1276
 3067SOL    HW211457   4.487   5.497   2.782  0.1772 -0.4257 -0.7770
 3067SOL     MW11458   4.486   5.579   2.754  0.3099 -0.1712 -0.0391
 3068SOL     OW11459   3.604   1.160   2.676  0.3304 -0.6724 -0.0994
 3068SOL    HW111460   3.627   1.067   2.674  0.7290 -0.5510 -1.0175
 3068SOL    HW211461   3.513   1.163   2.647  0.8857 -0.5981 -1.8748
 3068SOL     MW11462   3.595   1.149   2.672  0.4525 -0.6474 -0.4439
 3069SOL     OW11463   0.518   2.680   4.506  0.6235  0.1295  0.1995
 3069SOL    HW111464   0.522   2.608   4.570  0.2219  0.1140  0.2109
 3069SOL    HW211465   0.547   2.641   4.424 -0.2159 -0.2162  0.0614
 3069SOL     MW11466   0.522   2.666   4.504  0.4647  0.0834  0.1831
 3070SOL     OW11467   3.983   0.445   0.714  0.1482  0.1636  0.0904
 3070SOL    HW111468   3.903   0.495   0.730  0.2368  0.2367  0.3097
 3070SOL    HW211469   4.019   0.483   0.634 -1.8080 -2.1303 -1.9522
 3070SOL     MW11470   3.977   0.457   0.706 -0.0908 -0.1207 -0.1429
 3071SOL     OW11471   0.110   1.452   5.266 -0.0792  0.5774 -0.1615
 3071SOL    HW111472   0.168   1.402   5.323  3.0368  0.9071 -2.9121
 3071SOL    HW211473   0.041   1.391   5.241  0.4669 -0.5829  1.1344
 3071SOL     MW11474   0.109   1.438   5.270  0.3896  0.4710 -0.3476
 3072SOL     OW11475   0.381   2.729   0.410  0.4270  0.3385  0.5917
 3072SOL    HW111476   0.339   2.814   0.426  1.7513  0.8270  1.6562
 3072SOL    HW211477   0.456   2.750   0.353  1.8160  0.1935  2.3180
 3072SOL     MW11478   0.385   2.743   0.405  0.7744  0.3827  0.9490
 3073SOL     OW11479   4.940   4.755   2.674 -0.2566  0.0178 -0.3473
 3073SOL    HW111480   4.932   4.771   2.580  0.8598 -0.9956 -0.6297
 3073SOL    HW211481   5.028   4.786   2.696 -0.3476 -0.1681  0.2743
 3073SOL     MW11482   4.951   4.761   2.664 -0.1259 -0.1359 -0.3040
 3074SOL     OW11483   2.784   5.605   3.135 -0.2405  0.7178 -0.0542
 3074SOL    HW111484   2.861   5.619   3.191 -1.3732  0.2541  1.6697
 3074SOL    HW211485   2.761   5.693   3.104  0.3305  1.0044  0.3255
 3074SOL     MW11486   2.791   5.618   3.138 -0.3126  0.6948  0.2151
 3075SOL     OW11487   5.269   4.760   5.120 -0.1057  0.5512 -0.5647
 3075SOL    HW111488   5.246   4.697   5.052  0.2319  0.0855 -0.2476
 3075SOL    HW211489   5.364   4.753   5.128 -0.3790 -1.0381  1.5650
 3075SOL     MW11490   5.278   4.751   5.112 -0.0973  0.2880 -0.2518
 3076SOL     OW11491   3.716   5.187   0.468  0.0135  0.0819 -0.3973
 3076SOL    HW111492   3.761   5.104   0.486  0.2403  0.4328  0.6688
 3076SOL    HW211493   3.736   5.205   0.376 -0.8417 -1.5347 -0.9262
 3076SOL     MW11494   3.725   5.179   0.458 -0.0672 -0.0796 -0.3285
 3077SOL     OW11495   4.292   2.066   2.779 -0.6205  0.3045  0.1053
 3077SOL    HW111496   4.314   2.158   2.763 -0.7076  0.6211  1.7500
 3077SOL    HW211497   4.367   2.031   2.827 -1.6756  0.1752  1.6696
 3077SOL     MW11498   4.304   2.074   2.783 -0.7668  0.3283  0.5162
 3078SOL     OW11499   1.088   3.580   4.257  0.3241 -0.0036 -0.1271
 3078SOL    HW111500   1.157   3.594   4.323  0.2615 -1.3856  0.2252
 3078SOL    HW211501   1.063   3.669   4.231  2.1746  0.5228 -0.1832
 3078SOL     MW11502   1.094   3.593   4.262  0.5530 -0.1130 -0.0887
 3079SOL     OW11503   4.079   0.937   2.692 -0.0960  0.0932  0.4491
 3079SOL    HW111504   4.094   0.876   2.619 -0.6175  0.9570 -0.3978
 3079SOL    HW211505   4.098   0.886   2.770  1.5567 -0.5340 -0.3389
 3079SOL     MW11506   4.083   0.923   2.692  0.0486  0.1235  0.2398
 3080SOL     OW11507   1.880   1.968   0.968  0.0521  0.1500 -0.3017
 3080SOL    HW111508   1.852   1.891   1.016  0.5288  0.0729 -0.1458
 3080SOL    HW211509   1.910   2.029   1.035  3.0204 -0.8804 -0.6089
 3080SOL     MW11510   1.880   1.966   0.983  0.4930  0.0081 -0.3211
 3081SOL     OW11511   5.883   4.919   0.909 -0.6700  0.7957 -0.4181
 3081SOL    HW111512   5.875   4.958   0.822 -2.3077 -0.7281 -0.9695
 3081SOL    HW211513   5.952   4.971   0.952  1.0728  0.7617 -3.0462
 3081SOL     MW11514   5.891   4.931   0.904 -0.6566  0.5965 -0.8252
 3082SOL     OW11515   3.639   0.867   1.707 -0.4852 -0.0352  0.5924
 3082SOL    HW111516   3.708   0.851   1.642 -0.1779 -1.9054  1.3333
 3082SOL    HW211517   3.647   0.794   1.768 -1.7568  0.8894  1.8921
 3082SOL     MW11518   3.649   0.855   1.706 -0.6087 -0.1562  0.8537
 3083SOL     OW11519   5.883   3.726   2.017  0.1910  0.1886  0.1564
 3083SOL    HW111520   5.974   3.754   2.008  0.2822  0.0689  0.6757
 3083SOL    HW211521   5.868   3.665   1.944  1.2257 -1.5879  1.3801
 3083SOL     MW11522   5.892   3.721   2.007  0.3352 -0.0541  0.3793
 3084SOL     OW11523   1.211   2.895   4.353  0.1663 -0.1155 -0.1262
 3084SOL    HW111524   1.188   2.967   4.413  0.2813 -0.0403 -0.1729
 3084SOL    HW211525   1.293   2.923   4.312  0.9586 -0.9046  0.8870
 3084SOL     MW11526   1.218   2.908   4.355  0.2824 -0.2072 -0.0024
 3085SOL     OW11527   2.414   1.415   5.178 -0.0710  0.0816 -0.1973
 3085SOL    HW111528   2.420   1.338   5.122  0.5956  1.1990 -1.6818
 3085SOL    HW211529   2.504   1.448   5.184 -0.5275  1.4159 -0.5225
 3085SOL     MW11530   2.426   1.410   5.172 -0.0441  0.3955 -0.4292
 3086SOL     OW11531   4.905   0.497   5.223 -1.3879 -0.0871 -0.2513
 3086SOL    HW111532   4.908   0.540   5.309 -0.1753  0.5698 -0.6137
 3086SOL    HW211533   4.877   0.407   5.242 -0.8472 -0.0229  0.8600
 3086SOL     MW11534   4.902   0.491   5.237 -1.1635  0.0052 -0.1550
 3087SOL     OW11535   0.701   1.355   2.954 -0.2004  0.2524 -0.7032
 3087SOL    HW111536   0.760   1.431   2.950 -0.7132  0.7213  0.2666
 3087SOL    HW211537   0.619   1.391   2.987  0.4422 -1.2334  2.7097
 3087SOL     MW11538   0.698   1.370   2.958 -0.1838  0.1222 -0.1419
 3088SOL     OW11539   4.936   0.870   5.197  0.0498  0.3279 -0.0274
 3088SOL    HW111540   4.847   0.892   5.169  0.2082  0.1616 -0.6744
 3088SOL    HW211541   4.958   0.792   5.147 -0.2957 -1.0040  1.8350
 3088SOL     MW11542   4.927   0.863   5.187  0.0262  0.1361  0.1283
 3089SOL     OW11543   5.714   1.978   2.659  0.5553  0.3858  0.2391
 3089SOL    HW111544   5.777   1.916   2.695 -0.7146  0.2305  2.2521
 3089SOL    HW211545   5.766   2.056   2.638  1.8905 -0.7750 -0.8498
 3089SOL     MW11546   5.729   1.980   2.661  0.5636  0.2173  0.3574
 3090SOL     OW11547   3.433   1.259   2.248  0.0982  0.0561 -0.0276
 3090SOL    HW111548   3.415   1.353   2.247  2.0465  0.4298 -0.8976
 3090SOL    HW211549   3.437   1.236   2.341 -1.7761  0.5373  0.1911
 3090SOL     MW11550   3.431   1.268   2.260  0.1078  0.1656 -0.1106
 3091SOL     OW11551   4.696   0.691   5.305 -0.8165  0.5640 -0.6333
 3091SOL    HW111552   4.757   0.645   5.247  0.1854 -0.1479  0.9684
 3091SOL    HW211553   4.628   0.627   5.325 -1.3188  0.8999 -1.2106
 3091SOL     MW11554   4.695   0.677   5.300 -0.7524  0.5159 -0.5021
 3092SOL     OW11555   4.642   0.090   5.479  0.4071 -0.3742 -0.4568
 3092SOL    HW111556   4.671   0.029   5.547 -2.4657 -0.3895  0.8316
 3092SOL    HW211557   4.656   0.176   5.517  0.0189 -0.3554 -0.3524
 3092SOL     MW11558   4.647   0.093   5.493 -0.0100 -0.3738 -0.2785
 3093SOL     OW11559   3.748   1.288   2.196  0.3332 -0.0034  0.5081
 3093SOL    HW111560   3.675   1.335   2.155  1.1329  1.5368  0.8351
 3093SOL    HW211561   3.740   1.308   2.289  1.7472  0.9885  0.4273
 3093SOL     MW11562   3.738   1.296   2.203  0.6166  0.3207  0.5395
 3094SOL     OW11563   2.225   5.510   4.326 -0.0464 -0.1822 -0.1924
 3094SOL    HW111564   2.275   5.592   4.332 -1.6202  0.9525 -1.6714
 3094SOL    HW211565   2.195   5.508   4.235 -0.9060 -1.8826  0.1126
 3094SOL     MW11566   2.227   5.521   4.315 -0.3576 -0.2546 -0.3424
 3095SOL     OW11567   3.617   3.989   4.824 -0.1492  0.1270 -0.1707
 3095SOL    HW111568   3.701   4.000   4.867 -0.4877 -0.8267  0.7600
 3095SOL    HW211569   3.582   4.078   4.817  1.1446  0.5849 -1.0292
 3095SOL     MW11570   3.623   4.002   4.829 -0.0269  0.0634 -0.1612
 3096SOL     OW11571   4.123   1.442   1.949 -0.0947 -0.1874  0.1002
 3096SOL    HW111572   4.213   1.412   1.942  0.0835  0.1536  0.8916
 3096SOL    HW211573   4.099   1.467   1.860  1.3860  1.9681  0.2770
 3096SOL     MW11574   4.131   1.442   1.937  0.1173  0.1322  0.2241
 3097SOL     OW11575   2.412   2.026   5.074  0.3342 -0.0118 -0.0026
 3097SOL    HW111576   2.450   2.114   5.074  1.8994 -0.6778 -0.2981
 3097SOL    HW211577   2.485   1.968   5.095 -0.5406 -1.3112 -0.4861
 3097SOL     MW11578   2.426   2.030   5.077  0.4227 -0.2635 -0.1016
 3098SOL     OW11579   0.206   5.564   0.289  0.5439 -0.3567 -0.5538
 3098SOL    HW111580   0.151   5.614   0.229  2.4816  2.1357 -0.3310
 3098SOL    HW211581   0.267   5.517   0.233  0.3236 -0.5206 -0.6582
 3098SOL     MW11582   0.206   5.564   0.274  0.7638 -0.0587 -0.5386
 3099SOL     OW11583   2.895   4.257   1.551  0.2686 -0.3241  0.2388
 3099SOL    HW111584   2.946   4.317   1.605 -1.1744  1.4910 -0.3616
 3099SOL    HW211585   2.812   4.248   1.597  0.1536 -1.2118 -0.1230
 3099SOL     MW11586   2.891   4.264   1.564  0.0689 -0.2055  0.1156
 3100SOL     OW11587   2.676   0.808   0.342 -0.4852  0.4548  0.2447
 3100SOL    HW111588   2.676   0.793   0.247  0.6206 -1.2631  0.4928
 3100SOL    HW211589   2.589   0.780   0.370 -0.9994  1.4600 -0.3293
 3100SOL     MW11590   2.665   0.802   0.333 -0.4096  0.3636  0.2030
 3101SOL     OW11591   0.076   3.006   0.214  0.0914 -0.6149  0.1137
 3101SOL    HW111592   0.010   2.958   0.263 -2.0598  2.4159  0.3215
 3101SOL    HW211593   0.156   2.997   0.267 -1.2255 -0.7190  2.1433
 3101SOL     MW11594   0.078   2.999   0.227 -0.3526 -0.2403  0.4001
 3102SOL     OW11595   1.917   3.037   0.254  0.2692 -0.6136 -0.8361
 3102SOL    HW111596   1.859   3.109   0.280 -0.0287 -0.6731 -1.3327
 3102SOL    HW211597   1.858   2.965   0.232  0.5570 -0.9044 -0.6558
 3102SOL     MW11598   1.902   3.037   0.255  0.2680 -0.6583 -0.8766
 3103SOL     OW11599   3.858   0.572   3.722  0.0582  0.4634  0.3487
 3103SOL    HW111600   3.866   0.509   3.651  0.1037  0.6131  0.2209
 3103SOL    HW211601   3.901   0.529   3.797 -0.7024 -0.0290  0.5068
 3103SOL     MW11602   3.865   0.558   3.723 -0.0331  0.4194  0.3526
 3104SOL     OW11603   0.143   1.292   5.628 -0.6081  0.3286 -0.0267
 3104SOL    HW111604   0.170   1.312   5.539  0.6030 -0.8978  0.0575
 3104SOL    HW211605   0.068   1.232   5.617 -0.2726 -0.0565 -0.2154
 3104SOL     MW11606   0.137   1.287   5.615 -0.4101  0.1223 -0.0401
 3105SOL     OW11607   0.896   4.412   3.986 -0.0251 -0.0965  0.3319
 3105SOL    HW111608   0.818   4.466   3.973  0.7631  0.9119 -0.2874
 3105SOL    HW211609   0.938   4.449   4.063  1.1355  0.9619 -0.7688
 3105SOL     MW11610   0.891   4.424   3.994  0.2243  0.1678  0.1113
 3106SOL     OW11611   5.687   4.540   1.621 -0.0709  0.1847  0.5492
 3106SOL    HW111612   5.637   4.472   1.667 -0.4066  0.6212  0.8276
 3106SOL    HW211613   5.775   4.534   1.659  0.1315 -0.6670 -0.0285
 3106SOL     MW11614   5.692   4.530   1.632 -0.0877  0.1316  0.5109
 3107SOL     OW11615   4.635   0.361   5.056 -0.0050 -0.0156 -0.4446
 3107SOL    HW111616   4.693   0.346   4.981  0.3660  1.2976 -0.4350
 3107SOL    HW211617   4.552   0.390   5.018 -0.8251 -2.3413 -0.4799
 3107SOL     MW11618   4.632   0.363   5.041 -0.0625 -0.1452 -0.4482
 3108SOL     OW11619   4.720   5.516   4.853  0.0854  0.4535  0.9231
 3108SOL    HW111620   4.629   5.485   4.860  0.4068 -0.6673  0.3052
 3108SOL    HW211621   4.743   5.540   4.943 -0.1268 -1.3263  1.4832
 3108SOL     MW11622   4.711   5.515   4.866  0.0992  0.0820  0.9155
 3109SOL     OW11623   4.991   0.168   3.216  0.0331 -0.6317  0.1220
 3109SOL    HW111624   5.058   0.136   3.275  0.4594 -3.3765 -1.7570
 3109SOL    HW211625   4.997   0.264   3.222  1.3819 -0.8569  2.9507
 3109SOL     MW11626   5.000   0.176   3.224  0.2604 -1.0119  0.2434
 3110SOL     OW11627   2.771   4.028   3.980  0.2456 -0.0359 -0.9306
 3110SOL    HW111628   2.862   4.024   4.010 -0.5151 -0.9026  1.3259
 3110SOL    HW211629   2.763   4.114   3.939  1.7313  0.5728  0.0192
 3110SOL     MW11630   2.782   4.039   3.978  0.3381 -0.0687 -0.5202
 3111SOL     OW11631   5.565   0.613   4.519 -0.0692  0.6371  0.2651
 3111SOL    HW111632   5.602   0.700   4.533 -1.2562  1.4047 -1.2506
 3111SOL    HW211633   5.473   0.622   4.543 -0.9908  0.7009 -3.0270
 3111SOL     MW11634   5.558   0.625   4.524 -0.3390  0.7435 -0.3505
 3112SOL     OW11635   2.198   0.512   0.722  0.0739 -0.0160 -0.1771
 3112SOL    HW111636   2.221   0.426   0.686 -0.0013 -0.5489  1.0350
 3112SOL    HW211637   2.283   0.556   0.735  0.1026  0.1823 -0.9859
 3112SOL     MW11638   2.212   0.506   0.719  0.0679 -0.0589 -0.1255
 3113SOL     OW11639   0.940   2.189   3.231  0.0925  0.5854 -0.1317
 3113SOL    HW111640   0.933   2.280   3.261  1.3569  0.5990  0.1519
 3113SOL    HW211641   0.941   2.138   3.312  0.2142  0.3786 -0.2655
 3113SOL     MW11642   0.939   2.194   3.245  0.2699  0.5608 -0.1125
 3114SOL     OW11643   0.324   2.141   1.806  0.0578  0.1069 -0.9086
 3114SOL    HW111644   0.410   2.167   1.840  0.6699 -1.8287 -0.9282
 3114SOL    HW211645   0.342   2.064   1.752 -1.2358  1.7761 -3.7937
 3114SOL     MW11646   0.337   2.134   1.804 -0.0294  0.0730 -1.2804
 3115SOL     OW11647   1.651   5.980   0.961  0.8051  0.4507  0.2269
 3115SOL    HW111648   1.690   5.962   0.876 -0.0064 -1.0847  0.1537
 3115SOL    HW211649   1.720   5.958   1.024  0.9594  0.3061  0.0089
 3115SOL     MW11650   1.665   5.975   0.959  0.7210  0.2356  0.1896
 3116SOL     OW11651   4.054   2.560   4.034 -0.0556 -0.2488 -0.1960
 3116SOL    HW111652   4.010   2.483   4.069 -1.6756  1.6205  2.0449
 3116SOL    HW211653   4.113   2.588   4.105 -0.6805  1.4911 -0.3438
 3116SOL     MW11654   4.056   2.554   4.048 -0.3428  0.2131  0.0720
 3117SOL     OW11655   3.170   4.261   5.262  0.1017 -0.5910  0.1326
 3117SOL    HW111656   3.121   4.187   5.297 -0.7703 -1.0427 -1.9286
 3117SOL    HW211657   3.146   4.335   5.318 -0.0944 -1.5799  1.3631
 3117SOL     MW11658   3.160   4.261   5.273 -0.0350 -0.7749  0.0257
 3118SOL     OW11659   1.399   4.351   2.599 -0.8955  0.1817 -0.0690
 3118SOL    HW111660   1.440   4.307   2.674 -1.2022 -1.8102 -1.0458
 3118SOL    HW211661   1.472   4.393   2.553 -0.2164 -1.6541 -0.6767
 3118SOL     MW11662   1.414   4.351   2.603 -0.8477 -0.3085 -0.2718
 3119SOL     OW11663   2.516   1.388   2.306 -0.0457 -0.1535  0.2238
 3119SOL    HW111664   2.425   1.358   2.318 -0.2040 -0.3855 -1.3867
 3119SOL    HW211665   2.565   1.307   2.293  0.1241  0.0594 -0.4848
 3119SOL     MW11666   2.510   1.373   2.306 -0.0443 -0.1560 -0.0732
 3120SOL     OW11667   1.545   1.698   5.000 -0.6097  0.4882 -0.2958
 3120SOL    HW111668   1.464   1.749   4.992 -0.0575  1.7053  1.5304
 3120SOL    HW211669   1.558   1.687   5.094  0.0540 -1.8250 -0.6351
 3120SOL     MW11670   1.537   1.703   5.011 -0.4541  0.3479 -0.1049
 3121SOL     OW11671   4.211   2.218   4.704  0.5247  0.1934  0.0100
 3121SOL    HW111672   4.176   2.132   4.727  3.1256 -1.4141 -1.7317
 3121SOL    HW211673   4.150   2.252   4.638 -1.3751  0.4141  1.8373
 3121SOL     MW11674   4.199   2.211   4.698  0.6142  0.0157  0.0210
 3122SOL     OW11675   5.826   2.301   3.088 -0.0613 -0.8418 -0.2826
 3122SOL    HW111676   5.920   2.284   3.096 -0.1536 -0.7179  1.1362
 3122SOL    HW211677   5.785   2.243   3.153 -0.6769  1.7343  1.7043
 3122SOL     MW11678   5.833   2.291   3.097 -0.1521 -0.4961  0.1533
 3123SOL     OW11679   4.415   3.323   1.906  0.1853 -0.0276 -0.7753
 3123SOL    HW111680   4.496   3.323   1.855  0.1088 -0.1583 -0.8949
 3123SOL    HW211681   4.419   3.404   1.957  1.7502 -1.3828  1.3599
 3123SOL     MW11682   4.426   3.334   1.906  0.3762 -0.2177 -0.5174
 3124SOL     OW11683   4.579   1.064   1.762 -0.3009 -0.4089 -0.0112
 3124SOL    HW111684   4.522   1.034   1.691  0.5723  0.1573 -0.9726
 3124SOL    HW211685   4.588   0.988   1.819 -1.7795 -0.5909  0.0036
 3124SOL     MW11686   4.573   1.051   1.760 -0.3781 -0.3598 -0.1323
 3125SOL     OW11687   2.906   3.598   4.468  0.0683  0.2175 -0.3927
 3125SOL    HW111688   2.918   3.552   4.551  1.2585  1.4009  0.1014
 3125SOL    HW211689   2.843   3.544   4.421  0.8646 -1.5381  0.4675
 3125SOL     MW11690   2.900   3.585   4.473  0.3226  0.1442 -0.2189
 3126SOL     OW11691   3.755   2.547   3.067 -0.6531 -0.5411  0.1769
 3126SOL    HW111692   3.717   2.495   2.997  1.0126  0.1778 -1.3172
 3126SOL    HW211693   3.704   2.628   3.067 -0.7198 -0.5807 -0.1749
 3126SOL     MW11694   3.744   2.551   3.058 -0.4485 -0.4544 -0.0594
 3127SOL     OW11695   2.038   2.477   5.342  0.1116  0.1065 -0.0853
 3127SOL    HW111696   1.961   2.460   5.288  0.8453  0.5292 -1.2755
 3127SOL    HW211697   2.112   2.470   5.281  0.8803  1.4823  0.6835
 3127SOL     MW11698   2.038   2.474   5.327  0.3037  0.3366 -0.1392
 3128SOL     OW11699   3.257   4.071   0.415 -0.6793 -0.0125 -0.0950
 3128SOL    HW111700   3.229   4.032   0.498  0.2919  1.0268  0.7371
 3128SOL    HW211701   3.267   3.996   0.356  0.9986 -1.0317  1.4335
 3128SOL     MW11702   3.255   4.056   0.418 -0.3402 -0.0100  0.2072
 3129SOL     OW11703   5.458   0.734   0.033 -0.0427 -0.1994  0.2395
 3129SOL    HW111704   5.407   0.815   0.023 -0.7784 -0.9218 -2.2177
 3129SOL    HW211705   5.415   0.672  -0.026  2.7714 -1.2637 -0.7400
 3129SOL     MW11706   5.446   0.736   0.024  0.2232 -0.4281 -0.2004
 3130SOL     OW11707   5.011   1.197   5.788  0.3697 -0.0169 -0.2555
 3130SOL    HW111708   4.917   1.200   5.769  0.8738  0.5338 -2.8307
 3130SOL    HW211709   5.041   1.287   5.773  1.5361 -0.4675 -0.6018
 3130SOL     MW11710   5.003   1.209   5.784  0.5832 -0.0042 -0.6289
 3131SOL     OW11711   3.586   1.666   5.761 -0.0428  0.2922  0.3857
 3131SOL    HW111712   3.500   1.706   5.768  0.0701  0.5201  0.4722
 3131SOL    HW211713   3.625   1.704   5.682  0.0463  0.3230  0.4431
 3131SOL     MW11714   3.580   1.676   5.752 -0.0169  0.3254  0.4039
 3132SOL     OW11715   0.322   2.632   0.060 -0.3281 -0.4457  0.6790
 3132SOL    HW111716   0.392   2.676   0.108 -1.1325  1.1447  0.4349
 3132SOL    HW211717   0.243   2.650   0.112 -0.4843 -2.7427  1.2924
 3132SOL     MW11718   0.321   2.640   0.073 -0.4511 -0.5362  0.7263
 3133SOL     OW11719   1.777   1.058   2.606 -0.3352  0.0071 -0.1016
 3133SOL    HW111720   1.851   1.004   2.634 -1.2026 -0.4198  1.4547
 3133SOL    HW211721   1.763   1.118   2.680 -2.2965 -0.7183  0.1233
 3133SOL     MW11722   1.785   1.059   2.619 -0.6973 -0.1405  0.1264
 3134SOL     OW11723   4.553   4.064   1.663 -0.0790  0.3489 -0.6920
 3134SOL    HW111724   4.578   3.972   1.667 -1.6452 -0.0350  1.4144
 3134SOL    HW211725   4.601   4.105   1.735  2.1618  1.6052 -2.8593
 3134SOL     MW11726   4.562   4.057   1.673  0.0072  0.4601 -0.6999
 3135SOL     OW11727   1.752   1.496   3.194  0.1707 -0.3123 -0.4063
 3135SOL    HW111728   1.810   1.446   3.252 -1.1342 -0.2248  1.0168
 3135SOL    HW211729   1.736   1.578   3.241 -1.2693 -0.4277 -0.6583
 3135SOL     MW11730   1.757   1.500   3.207 -0.1807 -0.3159 -0.2563
 3136SOL     OW11731   2.636   1.138   5.089  0.0413 -0.3568  0.1693
 3136SOL    HW111732   2.665   1.052   5.061  0.5037 -0.6635  1.5249
 3136SOL    HW211733   2.545   1.143   5.063  0.0226 -1.2502  0.0637
 3136SOL     MW11734   2.628   1.128   5.082  0.0980 -0.5103  0.3295
 3137SOL     OW11735   3.804   1.987   1.426 -0.1607  0.0926 -0.4322
 3137SOL    HW111736   3.823   2.074   1.391 -1.2718  0.6511  0.3271
 3137SOL    HW211737   3.716   1.967   1.395  0.2049 -0.9031 -0.8527
 3137SOL     MW11738   3.795   1.995   1.418 -0.2561  0.0367 -0.3889
 3138SOL     OW11739   4.389   2.299   3.115 -0.6136  0.2123 -0.0294
 3138SOL    HW111740   4.419   2.359   3.046  1.7828  1.1933  1.7424
 3138SOL    HW211741   4.454   2.228   3.114 -1.4928 -0.5950  0.1504
 3138SOL     MW11742   4.401   2.298   3.106 -0.4196  0.2344  0.2203
 3139SOL     OW11743   3.702   4.878   2.057 -0.1177  0.3020 -0.2044
 3139SOL    HW111744   3.644   4.953   2.045 -0.2451  0.4183  1.0470
 3139SOL    HW211745   3.643   4.802   2.054 -0.1160  0.3105 -0.5051
 3139SOL     MW11746   3.687   4.878   2.055 -0.1340  0.3176 -0.0827
 3140SOL     OW11747   4.300   3.776   1.706 -0.1892 -0.1428  0.4447
 3140SOL    HW111748   4.390   3.808   1.710  0.4640 -1.9744  1.0788
 3140SOL    HW211749   4.273   3.792   1.615  1.3245 -0.9917 -0.1670
 3140SOL     MW11750   4.308   3.782   1.695  0.0882 -0.4859  0.4475
 3141SOL     OW11751   1.502   1.301   1.321  0.0773  0.7463 -0.2643
 3141SOL    HW111752   1.419   1.319   1.365 -1.4892 -0.5163 -2.5922
 3141SOL    HW211753   1.485   1.322   1.229  2.0578 -0.4035 -0.9196
 3141SOL     MW11754   1.489   1.306   1.315  0.1303  0.4375 -0.6462
 3142SOL     OW11755   0.641   4.796   0.876 -0.0667 -0.2718  1.0386
 3142SOL    HW111756   0.639   4.784   0.971  0.7014  0.4818  1.1502
 3142SOL    HW211757   0.687   4.879   0.862 -0.2513 -0.3280  0.0125
 3142SOL     MW11758   0.647   4.805   0.886  0.0080 -0.1822  0.9215
 3143SOL     OW11759   2.573   3.300   1.685  0.6764  0.1571  0.0518
 3143SOL    HW111760   2.573   3.373   1.624  2.2992 -0.7515 -1.0866
 3143SOL    HW211761   2.490   3.256   1.671  0.7634  0.3337 -1.0512
 3143SOL     MW11762   2.562   3.303   1.675  0.8953  0.0634 -0.2351
 3144SOL     OW11763   4.933   3.639   4.962 -0.1021 -0.0917  0.1733
 3144SOL    HW111764   4.982   3.681   5.033 -0.2973  0.0389  0.2313
 3144SOL    HW211765   4.932   3.704   4.892 -1.4976  0.5017  0.7278
 3144SOL     MW11766   4.939   3.653   4.962 -0.3057  0.0010  0.2518
 3145SOL     OW11767   4.248   1.924   1.171 -0.7991 -0.5795 -0.2500
 3145SOL    HW111768   4.207   1.893   1.252  0.9128  0.3789  1.0196
 3145SOL    HW211769   4.197   2.002   1.147  0.0789  0.4591  1.1802
 3145SOL     MW11770   4.236   1.930   1.178 -0.4673 -0.3239  0.0956
 3146SOL     OW11771   2.391   3.764   3.819 -0.4905  0.2807 -0.5069
 3146SOL    HW111772   2.305   3.734   3.791 -0.3524 -1.1569  0.5215
 3146SOL    HW211773   2.423   3.694   3.876  0.1709  2.0625  1.3650
 3146SOL     MW11774   2.384   3.751   3.823 -0.3881  0.3247 -0.1357
 3147SOL     OW11775   2.801   0.193   1.850  0.5661  0.4424 -0.2797
 3147SOL    HW111776   2.808   0.226   1.760 -1.3668  0.5080 -0.4299
 3147SOL    HW211777   2.882   0.146   1.865  0.8957  0.4121 -2.0768
 3147SOL     MW11778   2.812   0.191   1.840  0.3607  0.4469 -0.5291
 3148SOL     OW11779   4.645   5.873   0.375  0.3242 -0.0004 -0.3524
 3148SOL    HW111780   4.581   5.882   0.305 -0.7866 -0.6049  0.5764
 3148SOL    HW211781   4.634   5.952   0.428 -1.1603 -1.1077  1.0271
 3148SOL     MW11782   4.635   5.884   0.373 -0.0076 -0.2193 -0.0569
 3149SOL     OW11783   1.314   3.628   1.236 -0.2260 -0.0455  0.0403
 3149SOL    HW111784   1.347   3.551   1.191 -2.3401 -1.8155  1.4240
 3149SOL    HW211785   1.390   3.662   1.284  0.3972 -2.0854  0.5236
 3149SOL     MW11786   1.328   3.623   1.237 -0.4169 -0.5331  0.2793
 3150SOL     OW11787   2.308   2.257   5.700  0.2658  0.3453 -1.2940
 3150SOL    HW111788   2.232   2.316   5.698 -0.4146 -0.4340  0.3455
 3150SOL    HW211789   2.271   2.170   5.682  0.5675 -0.2130  0.6609
 3150SOL     MW11790   2.293   2.253   5.697  0.2174  0.1738 -0.8340
 3151SOL     OW11791   0.563   2.925   5.077 -0.0027  0.1076  0.3028
 3151SOL    HW111792   0.479   2.889   5.047  0.2791 -3.4901  3.5382
 3151SOL    HW211793   0.623   2.907   5.005 -0.6725 -2.9250  0.4326
 3151SOL     MW11794   0.560   2.918   5.064 -0.0523 -0.7410  0.7339
 3152SOL     OW11795   0.313   5.121   1.628  0.3901 -0.5710 -0.8606
 3152SOL    HW111796   0.359   5.178   1.689 -1.8841  0.8021 -0.3893
 3152SOL    HW211797   0.361   5.129   1.546  1.1032  0.6636 -0.3261
 3152SOL     MW11798   0.325   5.129   1.626  0.1902 -0.2375 -0.7318
 3153SOL     OW11799   4.141   2.190   2.118  0.2376 -0.2257 -0.7072
 3153SOL    HW111800   4.136   2.100   2.088  1.5064  0.3557 -2.7539
 3153SOL    HW211801   4.062   2.232   2.083  1.7937  0.4921 -3.5280
 3153SOL     MW11802   4.131   2.184   2.110  0.5994 -0.0596 -1.3304
 3154SOL     OW11803   5.672   3.392   0.804 -0.1340  0.7382  0.3904
 3154SOL    HW111804   5.751   3.445   0.812  1.8508 -2.2011  1.4224
 3154SOL    HW211805   5.651   3.367   0.894 -1.1408 -0.0083 -0.0399
 3154SOL     MW11806   5.680   3.395   0.816 -0.0091  0.2666  0.4674
 3155SOL     OW11807   1.358   4.679   2.357  0.2135  0.0176 -0.0571
 3155SOL    HW111808   1.424   4.722   2.301 -0.8059  1.3210 -0.2868
 3155SOL    HW211809   1.387   4.698   2.446 -0.2759  1.3065 -0.1519
 3155SOL     MW11810   1.370   4.687   2.361  0.0205  0.3490 -0.0987
 3156SOL     OW11811   1.167   4.975   3.520 -0.0467 -0.4091  0.4289
 3156SOL    HW111812   1.133   5.029   3.449  0.2964 -0.0279  0.5519
 3156SOL    HW211813   1.153   4.885   3.490 -3.5809 -0.3400  1.6227
 3156SOL     MW11814   1.161   4.970   3.507 -0.4554 -0.3510  0.5975
 3157SOL     OW11815   3.831   3.088   3.614 -0.2384  0.2694  0.2248
 3157SOL    HW111816   3.899   3.048   3.559 -0.3039  0.1004  0.2661
 3157SOL    HW211817   3.819   3.027   3.687 -0.0429  0.5697  0.5093
 3157SOL     MW11818   3.838   3.075   3.616 -0.2217  0.2866  0.2663
 3158SOL     OW11819   5.579   5.680   0.202  0.4090 -0.1737  0.2794
 3158SOL    HW111820   5.602   5.601   0.153  1.1723  0.8806 -1.1114
 3158SOL    HW211821   5.663   5.723   0.218  0.0161  0.2337  1.2298
 3158SOL     MW11822   5.593   5.675   0.198  0.4568  0.0129  0.2230
 3159SOL     OW11823   0.046   1.785   0.643  1.3216  0.2440 -0.1988
 3159SOL    HW111824   0.137   1.754   0.642  0.6803 -1.8347 -3.5366
 3159SOL    HW211825  -0.006   1.705   0.653 -0.1801  0.9832 -1.7443
 3159SOL     MW11826   0.051   1.770   0.644  1.0476  0.0724 -0.8240
 3160SOL     OW11827   4.459   3.477   5.385  0.3247  0.4246  0.4833
 3160SOL    HW111828   4.385   3.517   5.340  2.5543  3.5818 -0.5244
 3160SOL    HW211829   4.475   3.396   5.336 -1.8198  0.1525  0.1577
 3160SOL     MW11830   4.451   3.472   5.373  0.3357  0.7939  0.3128
 3161SOL     OW11831   2.321   4.951   5.480 -0.0335  0.2730 -0.8962
 3161SOL    HW111832   2.393   4.978   5.537  0.7522  0.1300 -1.8071
 3161SOL    HW211833   2.262   4.902   5.538  1.4944 -1.1710 -0.4933
 3161SOL     MW11834   2.323   4.948   5.495  0.2625  0.0696 -0.9613
 3162SOL     OW11835   0.989   0.759   3.244  0.1377 -0.0530 -0.2682
 3162SOL    HW111836   1.077   0.721   3.252 -0.8745 -2.5366 -0.4724
 3162SOL    HW211837   0.950   0.746   3.330 -0.7991 -1.0242 -0.8237
 3162SOL     MW11838   0.995   0.752   3.256 -0.1118 -0.4953 -0.3655
 3163SOL     OW11839   2.753   0.862   1.877 -0.4928  0.2467  0.0912
 3163SOL    HW111840   2.838   0.885   1.916 -0.8872  0.8669  0.5841
 3163SOL    HW211841   2.770   0.779   1.831  0.0524 -0.3335  1.3036
 3163SOL     MW11842   2.766   0.854   1.876 -0.4735  0.2518  0.3095
 3164SOL     OW11843   1.749   0.012   5.340  0.2591 -0.3719 -0.6033
 3164SOL    HW111844   1.826  -0.046   5.339  0.7929  0.3243 -0.4437
 3164SOL    HW211845   1.712  -0.001   5.428  0.3913 -0.4490 -0.5571
 3164SOL     MW11846   1.754   0.003   5.351  0.3444 -0.2928 -0.5765
 3165SOL     OW11847   3.181   2.107   0.413  0.2375 -0.0955  0.2682
 3165SOL    HW111848   3.173   2.024   0.366 -0.6470  0.7107 -1.0479
 3165SOL    HW211849   3.218   2.083   0.498 -0.6876 -1.9238  0.1775
 3165SOL     MW11850   3.185   2.093   0.418  0.0062 -0.2265  0.0881
 3166SOL     OW11851   1.041   3.206   4.962 -0.6258 -0.0596 -0.1824
 3166SOL    HW111852   1.103   3.212   5.035 -0.0102  1.8111 -0.8021
 3166SOL    HW211853   0.998   3.122   4.973  1.2273 -0.9017  0.9241
 3166SOL     MW11854   1.044   3.196   4.973 -0.3097  0.0722 -0.1202
 3167SOL     OW11855   2.618   0.400   2.939 -0.4400  0.0497  0.4111
 3167SOL    HW111856   2.643   0.493   2.947  0.4103 -0.2277  1.0626
 3167SOL    HW211857   2.595   0.389   2.847 -0.4510  0.8907  0.3084
 3167SOL     MW11858   2.618   0.411   2.928 -0.3326  0.1219  0.4814
 3168SOL     OW11859   0.513   3.077   1.004  0.7433  0.1651  0.6561
 3168SOL    HW111860   0.583   3.034   1.053  1.1232  1.4205  1.2474
 3168SOL    HW211861   0.558   3.138   0.946  0.5470 -3.7789 -3.9436
 3168SOL     MW11862   0.528   3.080   1.003  0.7668 -0.1791  0.1431
 3169SOL     OW11863   1.325   4.942   0.311  0.4352  0.3338  0.4634
 3169SOL    HW111864   1.370   4.883   0.370  1.0038  0.6983  0.4042
 3169SOL    HW211865   1.244   4.966   0.356  0.4355 -0.1048  0.6915
 3169SOL     MW11866   1.321   4.938   0.324  0.5081  0.3247  0.4850
 3170SOL     OW11867   2.196   4.841   2.554 -0.0588 -0.0536 -0.1602
 3170SOL    HW111868   2.163   4.913   2.500  2.3424  1.1452 -0.1036
 3170SOL    HW211869   2.123   4.779   2.558 -1.4698  1.4165 -1.9144
 3170SOL     MW11870   2.182   4.842   2.548  0.0679  0.2875 -0.3774
 3171SOL     OW11871   1.618   3.703   3.724 -0.0254  0.4444  0.1420
 3171SOL    HW111872   1.672   3.637   3.680 -0.6723  0.0688 -0.0954
 3171SOL    HW211873   1.677   3.744   3.787  0.1296 -1.0738  1.0187
 3171SOL     MW11874   1.633   3.700   3.727 -0.0885  0.2022  0.2236
 3172SOL     OW11875   1.107   4.227   3.949 -0.0271 -0.1070 -0.1851
 3172SOL    HW111876   1.159   4.284   4.006 -0.4645  1.0397 -0.8959
 3172SOL    HW211877   1.019   4.264   3.951  0.6159  1.9830 -4.0791
 3172SOL     MW11878   1.103   4.239   3.956 -0.0008  0.3076 -0.7746
 3173SOL     OW11879   1.157   2.446   2.294  0.0900 -0.0003  0.4529
 3173SOL    HW111880   1.157   2.362   2.340  0.0468 -0.4630 -0.4022
 3173SOL    HW211881   1.077   2.490   2.325  0.0504 -0.3162  0.8028
 3173SOL     MW11882   1.147   2.441   2.304  0.0795 -0.1001  0.3884
 3174SOL     OW11883   3.730   2.753   4.400 -0.2893  0.3182 -0.1188
 3174SOL    HW111884   3.814   2.733   4.358  0.0536  0.2867  0.5732
 3174SOL    HW211885   3.753   2.773   4.491 -0.8892  1.5181 -0.2221
 3174SOL     MW11886   3.744   2.753   4.406 -0.3221  0.4678 -0.0439
 3175SOL     OW11887   2.463   5.279   5.810  0.1423 -0.4098 -0.0700
 3175SOL    HW111888   2.548   5.234   5.814 -0.0478 -0.6410  2.2104
 3175SOL    HW211889   2.400   5.212   5.837 -0.7416 -0.1779 -1.5618
 3175SOL     MW11890   2.466   5.264   5.814  0.0050 -0.4101  0.0310
 3176SOL     OW11891   1.740   3.359   2.944  0.3342  0.3659  0.4926
 3176SOL    HW111892   1.657   3.313   2.950 -0.4425  1.6299 -0.3190
 3176SOL    HW211893   1.806   3.290   2.946 -0.7773 -0.7411 -0.2605
 3176SOL     MW11894   1.738   3.344   2.945  0.0925  0.3862  0.2923
 3177SOL     OW11895   0.960   5.383   3.529 -0.0520 -0.0421 -0.2889
 3177SOL    HW111896   0.942   5.472   3.557 -0.4549  0.0596 -0.8452
 3177SOL    HW211897   1.034   5.355   3.582  0.7533  0.9906 -0.8423
 3177SOL     MW11898   0.967   5.391   3.539 -0.0005  0.1030 -0.4308
 3178SOL     OW11899   3.723   2.363   4.754  0.1401  0.0160  0.0133
 3178SOL    HW111900   3.636   2.401   4.750  0.7887  1.7664  1.7628
 3178SOL    HW211901   3.716   2.293   4.819  0.4461  1.3004  1.4406
 3178SOL     MW11902   3.711   2.359   4.762  0.2620  0.4046  0.4201
 3179SOL     OW11903   3.847   0.858   3.090  0.0413 -0.4222  0.2820
 3179SOL    HW111904   3.932   0.860   3.134 -0.0934 -1.3035  0.5896
 3179SOL    HW211905   3.838   0.945   3.050  1.2433 -0.4575 -0.0593
 3179SOL     MW11906   3.856   0.870   3.091  0.1781 -0.5394  0.2778
 3180SOL     OW11907   0.993   2.262   2.730  0.4195  0.1417  0.2529
 3180SOL    HW111908   0.988   2.191   2.794  2.2160  0.4874  0.8093
 3180SOL    HW211909   0.943   2.230   2.655  1.3492 -1.7804  0.4263
 3180SOL     MW11910   0.986   2.249   2.729  0.7685 -0.0601  0.3464
 3181SOL     OW11911   4.846   2.531   0.825 -0.7262  0.6018  0.3836
 3181SOL    HW111912   4.803   2.533   0.740 -0.2358 -2.0087  0.0094
 3181SOL    HW211913   4.939   2.544   0.806 -0.8155  1.6570  0.6872
 3181SOL     MW11914   4.852   2.533   0.812 -0.6747  0.4027  0.3746
 3182SOL     OW11915   5.073   1.709   1.654  0.1083  0.4737  0.0431
 3182SOL    HW111916   5.047   1.672   1.570  0.4156  0.3107  0.0174
 3182SOL    HW211917   5.072   1.634   1.714  3.2103 -0.1309 -0.5528
 3182SOL     MW11918   5.070   1.695   1.651  0.5445  0.3754 -0.0364
 3183SOL     OW11919   4.505   3.127   0.671  0.4077  0.2044  0.8715
 3183SOL    HW111920   4.510   3.048   0.725  0.0130  0.2892  1.0377
 3183SOL    HW211921   4.481   3.094   0.584 -1.7467  0.2955  1.3958
 3183SOL     MW11922   4.502   3.113   0.667  0.0815  0.2267  0.9599
 3184SOL     OW11923   4.275   2.646   1.236 -0.0149 -0.1071 -0.4935
 3184SOL    HW111924   4.234   2.717   1.188  1.0540  0.8598 -0.0075
 3184SOL    HW211925   4.258   2.567   1.184  0.4711  0.8037 -2.0338
 3184SOL     MW11926   4.268   2.645   1.224  0.1841  0.1335 -0.6285
 3185SOL     OW11927   2.121   2.585   3.295 -0.5409 -0.3463 -0.1206
 3185SOL    HW111928   2.110   2.495   3.325  0.8022 -0.3981  0.2796
 3185SOL    HW211929   2.215   2.592   3.276 -0.1413  1.7020  2.2894
 3185SOL     MW11930   2.132   2.574   3.296 -0.3178 -0.0908  0.2391
 3186SOL     OW11931   3.324   1.729   2.476  0.0418 -0.0806 -0.0002
 3186SOL    HW111932   3.388   1.679   2.527  2.4973  1.3696 -1.5506
 3186SOL    HW211933   3.345   1.821   2.494 -1.9039  0.4331 -0.1927
 3186SOL     MW11934   3.335   1.735   2.485  0.1070  0.1708 -0.2234
 3187SOL     OW11935   2.643   3.902   5.377  0.1217  0.1218  0.7073
 3187SOL    HW111936   2.737   3.898   5.362  0.2406  0.7652  1.2232
 3187SOL    HW211937   2.623   3.824   5.429  0.4028  0.0895  0.7661
 3187SOL     MW11938   2.652   3.892   5.382  0.1726  0.2003  0.7811
 3188SOL     OW11939   2.637   4.342   2.144  0.3412  0.0638  0.0833
 3188SOL    HW111940   2.723   4.300   2.146  0.1574 -0.3983 -1.2584
 3188SOL    HW211941   2.583   4.289   2.202  0.1367 -1.5283 -1.5300
 3188SOL     MW11942   2.641   4.330   2.151  0.2913 -0.1988 -0.2952
 3189SOL     OW11943   1.963   5.115   5.056  0.0583  0.7317 -0.2178
 3189SOL    HW111944   1.988   5.177   5.125  2.0662 -0.2656 -0.0028
 3189SOL    HW211945   1.992   5.157   4.975  0.9971  0.3124 -0.1119
 3189SOL     MW11946   1.970   5.128   5.054  0.4355  0.5503 -0.1764
 3190SOL     OW11947   2.161   5.973   3.424  0.1006  0.0973  0.2402
 3190SOL    HW111948   2.125   6.040   3.481  1.2128  0.3305  0.6789
 3190SOL    HW211949   2.254   5.969   3.446  0.3043 -0.6761 -0.6877
 3190SOL     MW11950   2.168   5.981   3.434  0.2689  0.0281  0.1776
 3191SOL     OW11951   2.031   5.324   5.233  0.1489 -1.1170  0.1958
 3191SOL    HW111952   1.975   5.281   5.298  1.4689  0.3061  2.3186
 3191SOL    HW211953   2.120   5.312   5.266  0.6197  2.3171  0.3202
 3191SOL     MW11954   2.035   5.317   5.245  0.3779 -0.4954  0.4835
 3192SOL     OW11955   0.225   3.041   1.191  0.1268  0.0418  0.2503
 3192SOL    HW111956   0.287   3.038   1.264  0.2195  2.1578  0.2847
 3192SOL    HW211957   0.279   3.059   1.115 -0.2669  0.2685  0.0244
 3192SOL     MW11958   0.240   3.043   1.191  0.0882  0.3414  0.2258
 3193SOL     OW11959   2.851   3.678   2.101 -0.8613  0.5366 -0.2081
 3193SOL    HW111960   2.922   3.617   2.081 -1.1678 -0.1774  0.8605
 3193SOL    HW211961   2.818   3.650   2.186 -1.6063  1.6380 -0.1218
 3193SOL     MW11962   2.856   3.667   2.109 -0.9956  0.5860 -0.0601
 3194SOL     OW11963   5.413   5.379   5.618  0.1317 -0.4258 -0.2380
 3194SOL    HW111964   5.498   5.337   5.623  0.5032 -0.1793 -3.5722
 3194SOL    HW211965   5.432   5.473   5.624  0.1328 -0.3596 -1.2133
 3194SOL     MW11966   5.426   5.386   5.620  0.1793 -0.3858 -0.7892
 3195SOL     OW11967   3.517   0.076   4.573  0.0712  0.3199 -0.2102
 3195SOL    HW111968   3.547   0.035   4.654  0.6634 -1.4278 -1.2935
 3195SOL    HW211969   3.598   0.107   4.531  0.0495 -1.3326 -1.4924
 3195SOL     MW11970   3.531   0.075   4.578  0.1442 -0.1153 -0.5131
 3196SOL     OW11971   5.418   1.441   4.735 -0.0293  0.6590 -0.5152
 3196SOL    HW111972   5.429   1.359   4.688 -3.0759 -0.6711  0.9251
 3196SOL    HW211973   5.328   1.467   4.717 -0.5609  1.2827  2.6637
 3196SOL     MW11974   5.408   1.434   4.727 -0.4869  0.5685  0.0758
 3197SOL     OW11975   1.988   0.263   0.923  0.0159 -0.0913 -0.2603
 3197SOL    HW111976   1.939   0.268   0.841 -1.3930  2.1582  0.6881
 3197SOL    HW211977   1.921   0.258   0.991  1.1351  0.2176  0.8833
 3197SOL     MW11978   1.974   0.263   0.921 -0.0211  0.2362  0.0075
 3198SOL     OW11979   2.423   1.153   4.750 -0.2515 -0.2228 -0.2646
 3198SOL    HW111980   2.412   1.181   4.841  1.5784 -0.0590 -0.0823
 3198SOL    HW211981   2.417   1.234   4.699 -0.8098 -0.2546 -0.2501
 3198SOL     MW11982   2.421   1.167   4.755 -0.0887 -0.2059 -0.2394
 3199SOL     OW11983   5.126   5.437   2.727 -0.4086  0.4242  1.0325
 3199SOL    HW111984   5.129   5.361   2.785  1.3663  0.1930  0.6724
 3199SOL    HW211985   5.049   5.486   2.755 -1.0243 -1.0203  1.8890
 3199SOL     MW11986   5.117   5.434   2.738 -0.2599  0.2098  1.0962
 3200SOL     OW11987   1.051   2.018   2.562  0.6480  0.4105 -0.4913
 3200SOL    HW111988   1.092   1.933   2.548  0.5961  0.2423  0.3487
 3200SOL    HW211989   1.093   2.052   2.641  0.2991  0.9360 -0.5276
 3200SOL     MW11990   1.062   2.012   2.571  0.5968  0.4563 -0.3881
 3201SOL     OW11991   5.087   4.342   0.067  0.5646  0.2283  0.3081
 3201SOL    HW111992   5.005   4.374   0.107 -0.7287 -1.0106 -1.3042
 3201SOL    HW211993   5.064   4.257   0.030  2.5203  0.0128 -0.4494
 3201SOL     MW11994   5.073   4.336   0.068  0.6490  0.0424  0.0047
 3202SOL     OW11995   4.391   0.484   4.226  0.7735 -0.3520 -0.3801
 3202SOL    HW111996   4.310   0.434   4.214  0.1400  0.5565  0.0173
 3202SOL    HW211997   4.411   0.518   4.139  0.5547 -0.3094 -0.4144
 3202SOL     MW11998   4.383   0.482   4.214  0.6647 -0.2302 -0.3338
 3203SOL     OW11999   3.415   1.442   4.157  0.4214 -0.3340  0.0179
 3203SOL    HW112000   3.490   1.393   4.189 -0.6101 -2.7068 -1.0525
 3203SOL    HW212001   3.356   1.448   4.233 -0.2770 -2.4635 -0.3300
 3203SOL     MW12002   3.417   1.436   4.171  0.2000 -0.9104 -0.1636
 3204SOL     OW12003   3.620   2.098   2.444 -0.1233  0.9596 -0.8204
 3204SOL    HW112004   3.659   2.020   2.405 -0.1256  0.0391  0.9587
 3204SOL    HW212005   3.686   2.130   2.505 -1.1364  0.8135  0.3892
 3204SOL     MW12006   3.633   2.092   2.447 -0.2532  0.8233 -0.4380
 3205SOL     OW12007   2.559   4.403   0.497 -0.0369  0.3141 -0.3393
 3205SOL    HW112008   2.490   4.407   0.564  0.2104 -1.9933  0.0846
 3205SOL    HW212009   2.522   4.447   0.421 -1.6063 -0.0233  0.2150
 3205SOL     MW12010   2.546   4.409   0.496 -0.2062 -0.0243 -0.2141
 3206SOL     OW12011   0.262   0.056   0.582 -0.4113  0.5703  0.0045
 3206SOL    HW112012   0.343   0.038   0.630 -1.3867 -3.6853  0.1754
 3206SOL    HW212013   0.252   0.151   0.588  2.1386  0.7081  3.8654
 3206SOL     MW12014   0.271   0.066   0.589 -0.2098  0.0431  0.5206
 3207SOL     OW12015   1.522   1.653   1.973  0.0839  0.6084  0.5502
 3207SOL    HW112016   1.552   1.741   1.994 -1.3043  1.9601 -2.8345
 3207SOL    HW212017   1.426   1.658   1.977 -0.0226 -0.6435  0.0112
 3207SOL     MW12018   1.514   1.665   1.976 -0.1074  0.6212  0.0479
 3208SOL     OW12019   5.386   0.393   3.862  0.2050 -0.3954 -0.3376
 3208SOL    HW112020   5.389   0.466   3.800  1.6425 -0.4834 -0.3983
 3208SOL    HW212021   5.293   0.374   3.873 -0.1400  0.8977 -0.9698
 3208SOL     MW12022   5.375   0.400   3.855  0.3448 -0.2412 -0.4261
 3209SOL     OW12023   5.928   3.816   2.598 -0.1815  0.3379  0.4385
 3209SOL    HW112024   5.952   3.853   2.513 -0.1199  1.4864  0.9552
 3209SOL    HW212025   6.010   3.782   2.634  0.0823  1.2803  0.7373
 3209SOL     MW12026   5.941   3.816   2.591 -0.1392  0.6056  0.5431
 3210SOL     OW12027   2.699   5.396   5.186 -0.2553 -0.3535  0.4877
 3210SOL    HW112028   2.772   5.361   5.135  0.5221  0.5678  0.9320
 3210SOL    HW212029   2.638   5.431   5.121 -0.6536 -1.7851  0.0836
 3210SOL     MW12030   2.701   5.396   5.171 -0.2067 -0.4187  0.4930
 3211SOL     OW12031   1.163   1.005   0.905 -0.0947 -0.1411 -0.3106
 3211SOL    HW112032   1.118   1.087   0.885 -0.2466 -0.2923 -0.5956
 3211SOL    HW212033   1.173   1.005   1.001  0.4818  0.5051 -0.3724
 3211SOL     MW12034   1.159   1.015   0.915 -0.0404 -0.0777 -0.3550
 3212SOL     OW12035   3.306   1.421   5.808  0.0988  0.0475 -0.3809
 3212SOL    HW112036   3.251   1.349   5.839 -0.7390  1.1290  0.7032
 3212SOL    HW212037   3.369   1.436   5.879 -0.6121  1.2827  0.0026
 3212SOL     MW12038   3.307   1.414   5.821 -0.0994  0.3442 -0.1931
 3213SOL     OW12039   5.059   4.281   1.605 -0.1919 -0.1584  0.0460
 3213SOL    HW112040   4.971   4.307   1.634 -0.2670 -1.1675  0.7280
 3213SOL    HW212041   5.060   4.301   1.512 -1.6192 -1.3895 -0.2548
 3213SOL     MW12042   5.048   4.287   1.597 -0.3843 -0.4454  0.0948
 3214SOL     OW12043   3.578   1.018   3.111  0.5908 -0.1459  0.6521
 3214SOL    HW112044   3.556   0.927   3.131 -2.2566  0.5562  1.0129
 3214SOL    HW212045   3.666   1.014   3.074  0.2603 -3.1191  0.0463
 3214SOL     MW12046   3.586   1.006   3.109  0.1838 -0.4367  0.6208
 3215SOL     OW12047   0.415   2.755   1.463 -0.2038 -0.1933  0.4237
 3215SOL    HW112048   0.402   2.766   1.368 -1.5760  4.1071  1.0194
 3215SOL    HW212049   0.331   2.723   1.495  0.3515 -1.9369  0.1980
 3215SOL     MW12050   0.403   2.752   1.455 -0.3084  0.1340  0.4711
 3216SOL     OW12051   5.894   0.847   2.791 -0.1957  0.4612 -0.3268
 3216SOL    HW112052   5.977   0.825   2.748 -1.6209  0.5877 -3.2616
 3216SOL    HW212053   5.886   0.942   2.781 -0.6106  0.4713  0.0838
 3216SOL     MW12054   5.904   0.857   2.784 -0.4311  0.4787 -0.6502
 3217SOL     OW12055   5.649   3.853   4.655  0.4430  0.0900 -0.4072
 3217SOL    HW112056   5.557   3.838   4.634  0.5883  1.1070 -1.8682
 3217SOL    HW212057   5.660   3.948   4.647  0.9892  0.3133  2.4306
 3217SOL     MW12058   5.639   3.863   4.651  0.5317  0.2487 -0.2308
 3218SOL     OW12059   2.248   3.874   5.716  0.1190 -0.8138  0.5110
 3218SOL    HW112060   2.295   3.795   5.743  0.5348 -0.7514 -0.0101
 3218SOL    HW212061   2.256   3.875   5.620 -2.0521 -1.4935  0.2885
 3218SOL     MW12062   2.255   3.864   5.707 -0.1059 -0.8929  0.4158
 3219SOL     OW12063   0.546   1.243   0.027 -0.4375 -0.0296  0.1332
 3219SOL    HW112064   0.461   1.233   0.071 -0.5415  1.8132  0.3654
 3219SOL    HW212065   0.526   1.228  -0.066 -0.7894 -0.7709  0.3212
 3219SOL     MW12066   0.532   1.239   0.021 -0.4959  0.1115  0.1874
 3220SOL     OW12067   5.112   2.712   5.279  0.7010  0.0682 -0.6150
 3220SOL    HW112068   5.065   2.719   5.197 -1.8975  0.3050  0.8419
 3220SOL    HW212069   5.189   2.769   5.269 -0.4950  1.4106 -2.2427
 3220SOL     MW12070   5.116   2.720   5.267  0.2151  0.2704 -0.6371
 3221SOL     OW12071   1.712   3.434   1.059  0.0238 -0.2666  0.4914
 3221SOL    HW112072   1.774   3.361   1.052  0.1213 -0.1512  0.1453
 3221SOL    HW212073   1.627   3.391   1.072 -0.1513 -0.4983 -1.3086
 3221SOL     MW12074   1.709   3.419   1.060  0.0137 -0.2816  0.2166
 3222SOL     OW12075   4.494   3.773   2.839 -0.6201 -0.1271  0.3367
 3222SOL    HW112076   4.506   3.857   2.794  0.6274 -1.6764 -2.3410
 3222SOL    HW212077   4.555   3.777   2.913 -0.0385  1.0465 -0.1863
 3222SOL     MW12078   4.504   3.784   2.843 -0.3862 -0.1752 -0.0730
 3223SOL     OW12079   5.882   4.372   2.424  0.4216  0.0795  0.3889
 3223SOL    HW112080   5.971   4.337   2.430 -0.1067 -1.5573 -0.9730
 3223SOL    HW212081   5.840   4.344   2.506  1.6201  2.2932  1.8046
 3223SOL     MW12082   5.888   4.364   2.436  0.5078  0.1535  0.3955
 3224SOL     OW12083   4.162   2.757   0.766  0.0857  0.3075 -0.7232
 3224SOL    HW112084   4.124   2.845   0.762  2.7154  1.5936  0.7594
 3224SOL    HW212085   4.240   2.768   0.821 -1.0251 -3.5293  1.7668
 3224SOL     MW12086   4.167   2.770   0.773  0.2804 -0.0191 -0.2147
 3225SOL     OW12087   1.813   4.726   1.212  0.3604 -0.3631  0.5368
 3225SOL    HW112088   1.745   4.764   1.268  1.0375  1.2120  0.3168
 3225SOL    HW212089   1.895   4.763   1.246  0.7264  1.2206 -1.9091
 3225SOL     MW12090   1.815   4.736   1.223  0.4940  0.0415  0.1955
 3226SOL     OW12091   5.046   0.449   3.359  0.2505  0.0764  0.0353
 3226SOL    HW112092   5.102   0.375   3.383 -1.4819 -0.8457  1.3503
 3226SOL    HW212093   5.082   0.523   3.408  0.3828 -0.4751  0.7688
 3226SOL     MW12094   5.058   0.449   3.368  0.0453 -0.1123  0.2975
 3227SOL     OW12095   4.352   1.489   3.489 -0.5548  0.2491  0.1756
 3227SOL    HW112096   4.415   1.558   3.469  2.3999 -2.4179 -0.1942
 3227SOL    HW212097   4.299   1.480   3.410  1.6118 -0.5179 -1.2232
 3227SOL     MW12098   4.353   1.496   3.476  0.1006 -0.1905 -0.0510
 3228SOL     OW12099   2.841   3.027   2.267 -0.3102  0.6687 -0.1525
 3228SOL    HW112100   2.772   3.044   2.330 -0.8239 -1.2462 -0.1538
 3228SOL    HW212101   2.922   3.035   2.317 -0.6846 -0.1964  0.6046
 3228SOL     MW12102   2.843   3.030   2.281 -0.4239  0.3128 -0.0558
 3229SOL     OW12103   3.798   4.917   1.332 -0.5185 -0.8996 -0.7375
 3229SOL    HW112104   3.861   4.845   1.325 -1.8350 -2.1985  0.4044
 3229SOL    HW212105   3.718   4.882   1.293 -1.6287 -0.6235  1.2664
 3229SOL     MW12106   3.796   4.903   1.326 -0.8290 -1.0304 -0.3349
 3230SOL     OW12107   0.041   1.693   3.387  0.3848  0.4283 -0.1048
 3230SOL    HW112108  -0.005   1.627   3.439  2.9917 -0.4363  1.2010
 3230SOL    HW212109  -0.014   1.706   3.310 -1.0150 -2.0453  0.4376
 3230SOL     MW12110   0.028   1.686   3.383  0.5393  0.0010  0.1318
 3231SOL     OW12111   5.689   2.949   5.836 -0.0688 -0.0508 -0.7360
 3231SOL    HW112112   5.774   2.917   5.805  0.3483 -1.2642  1.5494
 3231SOL    HW212113   5.687   2.925   5.928 -2.6496  0.5111 -0.6162
 3231SOL     MW12114   5.699   2.942   5.844 -0.3457 -0.1342 -0.4281
 3232SOL     OW12115   3.724   2.875   0.398 -0.4463  0.3974  0.3315
 3232SOL    HW112116   3.793   2.844   0.339 -0.1868 -0.4393  1.0762
 3232SOL    HW212117   3.643   2.864   0.348 -0.2991 -0.9441  0.3711
 3232SOL     MW12118   3.723   2.870   0.384 -0.3941  0.1187  0.4319
 3233SOL     OW12119   5.928   1.980   0.391 -0.2434  0.0568 -0.1657
 3233SOL    HW112120   5.981   2.034   0.450 -1.2623 -0.0621  0.8760
 3233SOL    HW212121   5.838   2.007   0.409 -0.5799 -0.1534 -1.5024
 3233SOL     MW12122   5.923   1.990   0.401 -0.4168  0.0147 -0.2035
 3234SOL     OW12123   3.910   2.144   4.556  0.0305 -1.0458 -0.5177
 3234SOL    HW112124   3.921   2.114   4.646  1.8026  0.5303 -0.1696
 3234SOL    HW212125   3.838   2.207   4.560  0.1602 -0.9172 -0.1876
 3234SOL     MW12126   3.903   2.148   4.568  0.2742 -0.8273 -0.4311
 3235SOL     OW12127   5.098   5.168   0.366  0.5870  0.2410  0.0686
 3235SOL    HW112128   5.079   5.101   0.432 -0.5771  0.3590 -0.1350
 3235SOL    HW212129   5.061   5.133   0.285 -0.4927  1.3399  0.0623
 3235SOL     MW12130   5.091   5.155   0.364  0.2995  0.3967  0.0418
 3236SOL     OW12131   1.899   5.803   4.844  0.1554 -0.3698 -0.1063
 3236SOL    HW112132   1.877   5.710   4.843 -1.4097 -0.0775  2.6256
 3236SOL    HW212133   1.973   5.810   4.905 -1.5014  0.4656  1.8900
 3236SOL     MW12134   1.905   5.792   4.852 -0.2570 -0.2255  0.4988
 3237SOL     OW12135   0.301   4.412   3.504  0.3335 -0.1730 -0.4372
 3237SOL    HW112136   0.236   4.342   3.496 -0.0538  0.2473 -0.9616
 3237SOL    HW212137   0.252   4.488   3.535  0.9908 -0.4865  1.4585
 3237SOL     MW12138   0.287   4.413   3.507  0.3681 -0.1593 -0.2615
 3238SOL     OW12139   4.814   2.724   2.701 -0.2972 -0.5538 -0.0889
 3238SOL    HW112140   4.832   2.683   2.786  1.3893 -0.6099 -0.4647
 3238SOL    HW212141   4.721   2.706   2.685 -1.4750  2.0134  3.1483
 3238SOL     MW12142   4.804   2.716   2.710 -0.2327 -0.2322  0.2775
 3239SOL     OW12143   3.869   5.970   0.371 -0.4297  0.3557  0.4178
 3239SOL    HW112144   3.881   6.044   0.312 -1.0031  0.3904  0.3370
 3239SOL    HW212145   3.938   5.979   0.437  2.1717 -1.3998 -1.9510
 3239SOL     MW12146   3.879   5.980   0.372 -0.1702  0.1359  0.1042
 3240SOL     OW12147   2.041   2.271   3.666 -0.2534 -0.0462  0.7834
 3240SOL    HW112148   2.048   2.245   3.758 -0.8068  0.8648  1.0897
 3240SOL    HW212149   1.988   2.203   3.626 -0.2168 -0.3159  1.1875
 3240SOL     MW12150   2.035   2.259   3.673 -0.3200  0.0360  0.8743
 3241SOL     OW12151   1.326   4.664   4.061 -0.6070  0.5192  0.0029
 3241SOL    HW112152   1.286   4.751   4.056  1.3644  1.3823 -1.7193
 3241SOL    HW212153   1.403   4.676   4.117 -0.5203 -0.2033  0.0469
 3241SOL     MW12154   1.331   4.677   4.067 -0.3436  0.5374 -0.2117
 3242SOL     OW12155   5.951   5.283   0.350 -0.5160  0.1800  0.2196
 3242SOL    HW112156   5.954   5.314   0.440 -0.3742  2.2986 -0.4840
 3242SOL    HW212157   6.040   5.295   0.317 -0.4523 -1.0210 -0.0838
 3242SOL     MW12158   5.962   5.288   0.357 -0.4897  0.2980  0.0907
 3243SOL     OW12159   3.907   4.289   4.055  0.0033  0.5447 -0.0040
 3243SOL    HW112160   3.984   4.347   4.049 -0.7695  1.7694  1.5951
 3243SOL    HW212161   3.867   4.294   3.969  1.3177  0.4499 -0.6410
 3243SOL     MW12162   3.912   4.297   4.043  0.0727  0.6895  0.1192
 3244SOL     OW12163   0.330   4.724   5.650 -0.1728 -0.3948 -0.0432
 3244SOL    HW112164   0.266   4.694   5.586 -0.3071  0.8899 -0.5185
 3244SOL    HW212165   0.323   4.819   5.649  0.9943 -0.2857  0.6714
 3244SOL     MW12166   0.321   4.732   5.642 -0.0406 -0.2160 -0.0129
 3245SOL     OW12167   2.621   3.269   4.489 -0.4015 -0.1661 -0.4862
 3245SOL    HW112168   2.623   3.306   4.577 -1.6105 -3.9233  1.2368
 3245SOL    HW212169   2.701   3.216   4.484  0.2042  0.8716 -2.0629
 3245SOL     MW12170   2.632   3.267   4.499 -0.4787 -0.5145 -0.4673
 3246SOL     OW12171   0.805   1.619   0.142  0.0572 -0.2476 -0.4308
 3246SOL    HW112172   0.876   1.682   0.125  1.5595 -2.5841 -3.4128
 3246SOL    HW212173   0.746   1.629   0.068  0.0358 -1.8952 -0.6681
 3246SOL     MW12174   0.807   1.628   0.130  0.2467 -0.7576 -0.8429
 3247SOL     OW12175   0.572   5.130   4.681  0.2461  0.3710 -0.1600
 3247SOL    HW112176   0.527   5.125   4.596  0.0652  1.1001 -0.1111
 3247SOL    HW212177   0.513   5.085   4.742  1.0549 -1.4525 -0.6903
 3247SOL     MW12178   0.558   5.124   4.678  0.3265  0.2313 -0.2217
 3248SOL     OW12179   0.608   1.726   2.489 -0.6034  0.5311  0.3351
 3248SOL    HW112180   0.554   1.697   2.563  0.6592  0.2383  1.1542
 3248SOL    HW212181   0.556   1.795   2.448 -0.1352  2.7345  3.2018
 3248SOL     MW12182   0.594   1.732   2.494 -0.3818  0.7756  0.8070
 3249SOL     OW12183   0.836   0.495   4.828 -0.5723 -0.6241  0.2075
 3249SOL    HW112184   0.873   0.583   4.831  0.6795 -1.1487  0.5584
 3249SOL    HW212185   0.889   0.444   4.890 -0.4488 -1.9155 -0.9247
 3249SOL     MW12186   0.848   0.500   4.836 -0.3963 -0.8565  0.1078
 3250SOL     OW12187   0.785   0.005   0.122 -0.5072 -0.1260 -0.5271
 3250SOL    HW112188   0.711   0.066   0.113 -0.0726  0.4477 -0.2160
 3250SOL    HW212189   0.835   0.016   0.042  0.7394  1.4911  0.4491
 3250SOL     MW12190   0.782   0.014   0.111 -0.2919  0.1540 -0.3623
 3251SOL     OW12191   5.475   2.767   2.535  0.2036 -0.5633  0.1851
 3251SOL    HW112192   5.471   2.727   2.448 -0.6897  1.4987 -0.7480
 3251SOL    HW212193   5.564   2.747   2.567  1.6741  1.3093 -2.5171
 3251SOL     MW12194   5.486   2.759   2.528  0.2775 -0.0596 -0.2804
 3252SOL     OW12195   2.672   0.632   3.266 -0.0586  0.0681  0.0551
 3252SOL    HW112196   2.620   0.564   3.226 -0.2689 -0.1592  0.7116
 3252SOL    HW212197   2.649   0.712   3.218  0.0324 -0.2795 -0.5695
 3252SOL     MW12198   2.663   0.634   3.255 -0.0737 -0.0055  0.0591
 3253SOL     OW12199   4.226   2.576   3.315  0.3661  0.0633 -0.5320
 3253SOL    HW112200   4.166   2.549   3.384  0.1287 -0.3996 -0.9229
 3253SOL    HW212201   4.278   2.646   3.356  0.2422 -0.2178  0.1196
 3253SOL     MW12202   4.225   2.582   3.329  0.3200 -0.0322 -0.4988
 3254SOL     OW12203   3.197   4.607   1.342  0.4716 -0.7706 -0.0824
 3254SOL    HW112204   3.104   4.597   1.325  0.3197  1.0526 -0.4617
 3254SOL    HW212205   3.240   4.578   1.262  0.1049  0.5406 -0.7770
 3254SOL     MW12206   3.191   4.602   1.330  0.4051 -0.3691 -0.2198
 3255SOL     OW12207   1.051   3.992   2.486  0.8352 -0.6333 -0.7140
 3255SOL    HW112208   1.137   4.033   2.478  1.4537 -1.7344  0.1034
 3255SOL    HW212209   1.070   3.898   2.493 -0.4894 -0.9627 -1.4209
 3255SOL     MW12210   1.064   3.985   2.486  0.7448 -0.8166 -0.6998
 3256SOL     OW12211   5.865   3.014   4.677  0.1496  0.1129  0.2431
 3256SOL    HW112212   5.870   2.935   4.731 -2.7291 -0.8572 -0.8085
 3256SOL    HW212213   5.944   3.012   4.623  2.1908  0.1648  3.0882
 3256SOL     MW12214   5.876   3.004   4.677  0.0429 -0.0045  0.4725
 3257SOL     OW12215   5.276   5.282   2.083  0.6332  0.5688 -0.4619
 3257SOL    HW112216   5.321   5.265   2.000  1.2712  0.5704 -0.1173
 3257SOL    HW212217   5.285   5.376   2.097  1.8187  0.3588  0.3368
 3257SOL     MW12218   5.283   5.292   2.074  0.8669  0.5422 -0.3154
 3258SOL     OW12219   4.738   4.021   0.907 -0.0348  0.0070 -0.0909
 3258SOL    HW112220   4.813   4.074   0.881 -0.4464  0.5347 -0.2200
 3258SOL    HW212221   4.663   4.081   0.900 -0.2465 -0.0226  1.6429
 3258SOL     MW12222   4.738   4.036   0.903 -0.1144  0.0701  0.1146
 3259SOL     OW12223   2.421   5.540   4.676 -0.1705 -0.0282 -0.1564
 3259SOL    HW112224   2.442   5.462   4.727  1.7689 -0.2928 -1.3313
 3259SOL    HW212225   2.488   5.543   4.608 -1.9482  1.0410 -1.9084
 3259SOL     MW12226   2.432   5.530   4.674 -0.1500  0.0749 -0.5307
 3260SOL     OW12227   5.383   2.924   3.776 -0.0309 -0.5489  0.0682
 3260SOL    HW112228   5.428   2.914   3.692 -1.7280  0.9642 -1.0691
 3260SOL    HW212229   5.311   2.861   3.773  0.2502 -0.9045  0.6430
 3260SOL     MW12230   5.380   2.915   3.765 -0.2122 -0.4008 -0.0038
 3261SOL     OW12231   1.883   1.818   1.874 -0.5759  0.5386 -0.7159
 3261SOL    HW112232   1.972   1.844   1.898 -0.1671  0.0338 -1.6577
 3261SOL    HW212233   1.849   1.892   1.824 -0.9619  1.0435  0.2750
 3261SOL     MW12234   1.890   1.831   1.870 -0.5729  0.5386 -0.7097
 3262SOL     OW12235   3.705   5.939   3.844 -0.3815 -0.6321  0.3894
 3262SOL    HW112236   3.693   5.844   3.839  2.5166 -1.0001  0.1116
 3262SOL    HW212237   3.640   5.974   3.783 -2.1162 -2.3638  1.1948
 3262SOL     MW12238   3.695   5.931   3.835 -0.2325 -0.9012  0.4570
 3263SOL     OW12239   2.420   3.934   4.040  0.1823 -0.8465  0.1423
 3263SOL    HW112240   2.423   3.902   3.951  1.0389 -1.3562  0.3517
 3263SOL    HW212241   2.401   3.857   4.094  0.4685 -0.6880  0.4761
 3263SOL     MW12242   2.418   3.920   4.036  0.3285 -0.8914  0.2117
 3264SOL     OW12243   3.069   3.024   2.448  0.1499  0.5555  0.3689
 3264SOL    HW112244   3.086   2.937   2.484 -1.3177  0.4039  0.7292
 3264SOL    HW212245   3.041   3.076   2.524 -0.6848  0.8615 -0.1388
 3264SOL     MW12246   3.067   3.019   2.463 -0.1450  0.5753  0.3498
 3265SOL     OW12247   1.491   4.524   0.122 -0.1953 -0.1519  0.4820
 3265SOL    HW112248   1.552   4.493   0.190  0.0363 -2.3132 -0.6800
 3265SOL    HW212249   1.502   4.463   0.050 -1.0859  1.6202 -1.1950
 3265SOL     MW12250   1.501   4.512   0.122 -0.2798 -0.2017  0.1186
 3266SOL     OW12251   0.916   2.699   3.679  0.0509 -0.3331  0.0982
 3266SOL    HW112252   1.011   2.708   3.677 -0.1297  1.8461  0.1343
 3266SOL    HW212253   0.886   2.740   3.597 -0.9811  1.1631  1.1875
 3266SOL     MW12254   0.924   2.706   3.668 -0.1043  0.1376  0.2425
 3267SOL     OW12255   2.606   4.848   0.825  0.3977  0.0290  0.3916
 3267SOL    HW112256   2.678   4.905   0.798 -0.8367  0.6754 -1.6323
 3267SOL    HW212257   2.622   4.766   0.778 -0.7423  0.5358 -0.9279
 3267SOL     MW12258   2.617   4.845   0.816  0.0937  0.1769 -0.0364
 3268SOL     OW12259   3.904   1.857   0.657  0.5259 -0.3562  0.0538
 3268SOL    HW112260   3.880   1.765   0.662  1.5731 -0.6339  0.1476
 3268SOL    HW212261   3.870   1.887   0.573  2.6741 -1.5693 -1.2726
 3268SOL     MW12262   3.897   1.849   0.647  0.9351 -0.5472 -0.1040
 3269SOL     OW12263   1.813   2.979   5.610  0.1985 -0.4500 -0.2980
 3269SOL    HW112264   1.763   3.032   5.673  1.1183 -0.8809  0.8101
 3269SOL    HW212265   1.810   3.029   5.529 -4.4883 -1.7820 -1.1293
 3269SOL     MW12266   1.806   2.992   5.608 -0.2837 -0.6757 -0.2623
 3270SOL     OW12267   3.613   0.725   4.282  0.4068  0.0016  0.2028
 3270SOL    HW112268   3.522   0.696   4.274  0.1166  0.5627  1.2651
 3270SOL    HW212269   3.606   0.815   4.315  1.3524  0.0083  0.3934
 3270SOL     MW12270   3.600   0.733   4.285  0.4904  0.0743  0.3633
 3271SOL     OW12271   2.788   3.172   1.630  0.1895 -0.3250  0.3876
 3271SOL    HW112272   2.717   3.237   1.629 -0.6467 -1.1880  1.3616
 3271SOL    HW212273   2.770   3.116   1.555  0.1726 -0.1877  0.2893
 3271SOL     MW12274   2.776   3.174   1.621  0.0803 -0.4179  0.4998
 3272SOL     OW12275   3.759   3.953   2.158 -0.0722 -0.1259  0.5613
 3272SOL    HW112276   3.717   3.944   2.073  2.0122  1.4316 -0.6790
 3272SOL    HW212277   3.687   3.953   2.221 -1.5243 -3.2591 -0.9981
 3272SOL     MW12278   3.744   3.952   2.155  0.0086 -0.3276  0.2029
 3273SOL     OW12279   1.130   0.181   4.255  0.4846  0.2556 -0.3909
 3273SOL    HW112280   1.105   0.194   4.164  0.0748  2.1625 -0.0163
 3273SOL    HW212281   1.224   0.197   4.257  0.2909  1.4061 -0.2677
 3273SOL     MW12282   1.139   0.185   4.244  0.4073  0.6470 -0.3271
 3274SOL     OW12283   2.625   5.521   1.706  0.0127 -0.1349  0.2166
 3274SOL    HW112284   2.555   5.497   1.766 -0.2813  1.1696  0.4154
 3274SOL    HW212285   2.703   5.527   1.761 -0.5307  2.4996  0.7834
 3274SOL     MW12286   2.626   5.519   1.720 -0.0944  0.3691  0.3145
 3275SOL     OW12287   4.098   0.802   2.460  0.0915 -0.3113 -0.6502
 3275SOL    HW112288   4.043   0.842   2.393 -1.6677 -1.5490  0.0158
 3275SOL    HW212289   4.051   0.723   2.485  1.4328 -0.5959  1.0334
 3275SOL     MW12290   4.085   0.797   2.455  0.0381 -0.5062 -0.3495
 3276SOL     OW12291   5.052   3.747   3.481 -0.2030  0.6669  0.0025
 3276SOL    HW112292   5.050   3.661   3.524 -1.8212  1.3937  1.4532
 3276SOL    HW212293   5.075   3.727   3.390  0.1451 -1.2308  0.4738
 3276SOL     MW12294   5.054   3.733   3.475 -0.3657  0.5169  0.2484
 3277SOL     OW12295   2.994   2.456   1.005  0.4323  0.4618 -0.0878
 3277SOL    HW112296   3.018   2.531   1.059  1.2909 -0.8806  1.4750
 3277SOL    HW212297   2.903   2.472   0.980  0.7273  2.1866 -0.0939
 3277SOL     MW12298   2.985   2.467   1.009  0.5798  0.5107  0.1115
 3278SOL     OW12299   2.974   2.040   3.827  0.1311 -0.1152  0.3103
 3278SOL    HW112300   2.911   1.972   3.802 -0.8093  0.4410  1.1120
 3278SOL    HW212301   2.927   2.093   3.891  1.7123 -0.1709  1.5361
 3278SOL     MW12302   2.960   2.038   3.832  0.2131 -0.0510  0.5701
 3279SOL     OW12303   0.323   3.669   2.456 -0.0241  0.2447  0.4854
 3279SOL    HW112304   0.256   3.641   2.518  0.2835 -2.2359 -0.2311
 3279SOL    HW212305   0.385   3.596   2.454  0.5553  0.7720 -1.8775
 3279SOL     MW12306   0.323   3.656   2.464  0.0895 -0.0050  0.0913
 3280SOL     OW12307   4.270   4.256   0.040 -0.9530  0.1834 -0.0331
 3280SOL    HW112308   4.283   4.182   0.099 -1.5477 -0.7236 -1.0336
 3280SOL    HW212309   4.353   4.304   0.043 -0.9979  0.2016  1.5877
 3280SOL     MW12310   4.282   4.253   0.048 -1.0347  0.0696  0.0463
 3281SOL     OW12311   1.778   0.023   5.003 -0.1335  0.1880  0.4805
 3281SOL    HW112312   1.819  -0.039   4.943  0.2875  0.5502  0.3936
 3281SOL    HW212313   1.799   0.109   4.967 -0.2892  0.3937  0.8790
 3281SOL     MW12314   1.786   0.026   4.991 -0.0995  0.2607  0.5202
 3282SOL     OW12315   2.784   1.504   1.285 -0.4078 -0.3636  0.0271
 3282SOL    HW112316   2.712   1.568   1.294 -1.1120 -1.2017  0.3801
 3282SOL    HW212317   2.827   1.529   1.204 -0.7231  0.5327  0.1250
 3282SOL     MW12318   2.780   1.516   1.276 -0.5383 -0.3560  0.0848
 3283SOL     OW12319   3.789   3.715   0.648  0.7223 -0.0515  0.2188
 3283SOL    HW112320   3.735   3.637   0.633  0.2301  0.2512  0.4060
 3283SOL    HW212321   3.823   3.737   0.561  0.3246 -0.0843  0.0532
 3283SOL     MW12322   3.787   3.708   0.635  0.6082 -0.0169  0.2216
 3284SOL     OW12323   4.361   3.951   5.779 -0.9576  0.1156 -0.4604
 3284SOL    HW112324   4.307   3.996   5.715 -0.4386  3.0213  1.0446
 3284SOL    HW212325   4.325   3.862   5.784 -2.6238  0.6222 -2.8142
 3284SOL     MW12326   4.350   3.945   5.771 -1.1039  0.5524 -0.5693
 3285SOL     OW12327   4.817   3.216   0.174  0.1732  0.5161 -0.7422
 3285SOL    HW112328   4.743   3.157   0.165 -1.3168  2.0397  1.1977
 3285SOL    HW212329   4.852   3.224   0.085 -2.5763  0.4926 -1.8696
 3285SOL     MW12330   4.812   3.210   0.161 -0.3695  0.7081 -0.6382
 3286SOL     OW12331   5.138   1.627   3.880  0.4481  0.4339  0.4146
 3286SOL    HW112332   5.098   1.543   3.901  1.5347 -0.4937 -1.0658
 3286SOL    HW212333   5.211   1.635   3.941 -0.0566  0.6203  0.9953
 3286SOL     MW12334   5.142   1.618   3.891  0.5226  0.3390  0.2995
 3287SOL     OW12335   3.684   2.055   0.927 -0.2613 -0.1714 -0.3980
 3287SOL    HW112336   3.598   2.015   0.945 -0.6496  1.3421  1.2159
 3287SOL    HW212337   3.676   2.145   0.958  1.2733  0.5907 -2.1230
 3287SOL     MW12338   3.672   2.061   0.933 -0.1147  0.1199 -0.4123
 3288SOL     OW12339   5.836   1.152   2.300 -0.1009  0.0959  0.2422
 3288SOL    HW112340   5.753   1.103   2.298  0.0868 -0.2592  0.9939
 3288SOL    HW212341   5.814   1.235   2.342 -0.5101  0.8451 -1.4107
 3288SOL     MW12342   5.822   1.156   2.305 -0.1297  0.1463  0.1266
 3289SOL     OW12343   1.754   1.586   2.935 -0.1978 -0.3211  0.3764
 3289SOL    HW112344   1.659   1.594   2.943 -0.3741 -0.1949 -1.6185
 3289SOL    HW212345   1.777   1.518   2.999 -1.8700 -1.6203 -0.3386
 3289SOL     MW12346   1.744   1.578   2.945 -0.4345 -0.4712  0.0296
 3290SOL     OW12347   1.660   0.658   3.518 -0.1288 -0.2305 -0.6348
 3290SOL    HW112348   1.571   0.643   3.486  0.4888 -1.2991 -1.8476
 3290SOL    HW212349   1.697   0.571   3.529  0.7022  0.2093  0.1032
 3290SOL     MW12350   1.653   0.645   3.516  0.0565 -0.3110 -0.6955
 3291SOL     OW12351   0.520   4.144   1.060  0.3589  0.5846 -0.0806
 3291SOL    HW112352   0.586   4.085   1.025  0.5763 -0.2438  1.6496
 3291SOL    HW212353   0.476   4.181   0.983 -0.1096 -2.2167 -1.2126
 3291SOL     MW12354   0.523   4.141   1.046  0.3268  0.1197 -0.0041
 3292SOL     OW12355   1.462   2.178   4.933  0.2920 -0.0215 -0.1244
 3292SOL    HW112356   1.411   2.245   4.888  0.1235 -0.2284 -0.2484
 3292SOL    HW212357   1.410   2.154   5.009  0.3516 -0.0087 -0.0792
 3292SOL     MW12358   1.449   2.183   4.937  0.2780 -0.0463 -0.1345
 3293SOL     OW12359   1.573   3.293   0.469 -0.2732 -0.6168 -0.7565
 3293SOL    HW112360   1.518   3.360   0.510  0.5905 -0.1875 -0.2585
 3293SOL    HW212361   1.553   3.212   0.517 -0.9072 -0.5889 -0.9814
 3293SOL     MW12362   1.564   3.291   0.481 -0.2438 -0.5581 -0.7215
 3294SOL     OW12363   1.593   2.486   1.113  0.5365 -0.7232  0.4983
 3294SOL    HW112364   1.590   2.566   1.062  1.2573 -1.1190 -0.1692
 3294SOL    HW212365   1.583   2.515   1.204 -2.0099 -0.1313  0.0614
 3294SOL     MW12366   1.591   2.500   1.118  0.3028 -0.6979  0.3569
 3295SOL     OW12367   5.139   1.703   0.187  0.0992  0.5613 -0.3030
 3295SOL    HW112368   5.189   1.783   0.169  1.1308 -0.1895 -0.8079
 3295SOL    HW212369   5.064   1.708   0.127  0.9604  0.4299 -1.4153
 3295SOL     MW12370   5.136   1.714   0.177  0.3414  0.4483 -0.5100
 3296SOL     OW12371   2.537   1.964   3.167  0.3080  0.0015  0.2235
 3296SOL    HW112372   2.604   2.031   3.149 -0.5052  0.4349 -1.2824
 3296SOL    HW212373   2.485   2.001   3.239 -0.3246  1.1687 -0.8009
 3296SOL     MW12374   2.539   1.978   3.174  0.1228  0.2065 -0.1006
 3297SOL     OW12375   5.409   5.217   1.556 -0.1385 -0.2933  0.3257
 3297SOL    HW112376   5.335   5.237   1.614  0.8210 -0.7768  1.7258
 3297SOL    HW212377   5.430   5.125   1.575  1.5162  0.1637  0.6912
 3297SOL     MW12378   5.402   5.208   1.566  0.1955 -0.2966  0.5518
 3298SOL     OW12379   1.791   1.820   0.421 -0.7272 -0.2633 -0.2642
 3298SOL    HW112380   1.845   1.764   0.365  1.0775  0.9100  0.2613
 3298SOL    HW212381   1.764   1.763   0.493  0.6656 -0.6115 -0.0052
 3298SOL     MW12382   1.795   1.805   0.424 -0.3179 -0.1576 -0.1638
 3299SOL     OW12383   3.366   0.444   0.668  0.1525  0.0055 -0.0300
 3299SOL    HW112384   3.341   0.354   0.644  1.9082 -0.9295  1.5371
 3299SOL    HW212385   3.284   0.484   0.697 -0.2647 -1.8230  1.4539
 3299SOL     MW12386   3.352   0.438   0.668  0.3238 -0.3482  0.3605
 3300SOL     OW12387   3.746   2.494   3.763 -0.3391  0.4111  0.0185
 3300SOL    HW112388   3.665   2.516   3.810  0.3233  1.2597  0.7782
 3300SOL    HW212389   3.798   2.574   3.765  0.5587 -0.1498 -0.4003
 3300SOL     MW12390   3.742   2.507   3.769 -0.1392  0.4478  0.0622
 3301SOL     OW12391   2.670   4.736   5.632 -0.3614 -0.0632 -0.2047
 3301SOL    HW112392   2.587   4.737   5.680 -0.6818 -1.5910 -0.7152
 3301SOL    HW212393   2.676   4.648   5.596  0.6301  0.5807 -1.6676
 3301SOL     MW12394   2.660   4.725   5.633 -0.2754 -0.1760 -0.4573
 3302SOL     OW12395   5.664   4.403   3.170 -0.3976 -0.5418  0.6874
 3302SOL    HW112396   5.593   4.390   3.107  0.0273 -1.5371  0.4019
 3302SOL    HW212397   5.633   4.362   3.250 -0.3032 -0.6298  0.6787
 3302SOL     MW12398   5.651   4.396   3.172 -0.3314 -0.6809  0.6495
 3303SOL     OW12399   0.854   4.924   5.049  0.3332  0.4855  0.9311
 3303SOL    HW112400   0.935   4.873   5.049 -0.0059 -0.0547  0.8806
 3303SOL    HW212401   0.880   5.009   5.014  1.2202  0.8552  2.4074
 3303SOL     MW12402   0.868   4.928   5.045  0.4034  0.4635  1.1134
 3304SOL     OW12403   2.569   4.439   5.757  0.4230  0.0640 -0.1181
 3304SOL    HW112404   2.619   4.403   5.684  0.4289  0.0245 -0.0940
 3304SOL    HW212405   2.629   4.433   5.832 -0.1448 -1.3476  0.2358
 3304SOL     MW12406   2.583   4.434   5.757  0.3512 -0.1216 -0.0696
 3305SOL     OW12407   5.869   1.970   4.309 -0.0825 -0.1740  0.0908
 3305SOL    HW112408   5.870   2.062   4.336 -1.6765 -0.0532 -0.2163
 3305SOL    HW212409   5.795   1.932   4.356 -0.6352 -0.8301 -1.2877
 3305SOL     MW12410   5.859   1.977   4.319 -0.3572 -0.2426 -0.1254
 3306SOL     OW12411   5.459   4.295   2.990 -0.1680  0.2301  0.2517
 3306SOL    HW112412   5.420   4.375   2.953 -0.6992 -0.4158 -0.6327
 3306SOL    HW212413   5.543   4.286   2.946 -0.5222 -0.1954 -0.3533
 3306SOL     MW12414   5.465   4.304   2.979 -0.2813  0.0930  0.0610
 3307SOL     OW12415   5.417   4.017   5.444 -0.0599  0.0635 -0.1001
 3307SOL    HW112416   5.450   3.928   5.454  1.1970  0.5017 -0.2417
 3307SOL    HW212417   5.354   4.012   5.372 -1.7845 -1.1577  1.4521
 3307SOL     MW12418   5.413   4.005   5.436 -0.1197 -0.0367  0.0801
 3308SOL     OW12419   3.679   3.693   4.220  0.0839 -0.4342 -0.0203
 3308SOL    HW112420   3.593   3.729   4.198 -0.3107 -0.3297  1.5784
 3308SOL    HW212421   3.662   3.633   4.293  0.9073 -3.0293 -1.9087
 3308SOL     MW12422   3.666   3.690   4.227  0.1388 -0.7532 -0.0577
 3309SOL     OW12423   4.822   3.372   4.617  0.5813 -0.1939  0.0090
 3309SOL    HW112424   4.774   3.451   4.594 -0.4370 -0.6816  0.4291
 3309SOL    HW212425   4.771   3.332   4.687  0.4907 -1.7743 -0.9190
 3309SOL     MW12426   4.809   3.377   4.623  0.4396 -0.4587 -0.0558
 3310SOL     OW12427   2.491   0.998   4.196  0.5639  0.5935  0.6469
 3310SOL    HW112428   2.430   0.932   4.229  0.1820  2.0052  2.8372
 3310SOL    HW212429   2.575   0.976   4.237  1.6113 -1.3525 -2.3651
 3310SOL     MW12430   2.494   0.987   4.205  0.6490  0.5251  0.5426
 3311SOL     OW12431   1.411   2.811   3.982 -0.4661  0.2496 -0.0950
 3311SOL    HW112432   1.482   2.861   3.942  0.4931  0.1845  1.4547
 3311SOL    HW212433   1.380   2.753   3.913  2.2999 -1.1074 -0.2804
 3311SOL     MW12434   1.416   2.810   3.968  0.0107  0.0675  0.0799
 3312SOL     OW12435   0.115   4.781   5.007 -0.0203  0.2028 -0.1323
 3312SOL    HW112436   0.118   4.872   5.037  2.0002  0.4872 -1.1104
 3312SOL    HW212437   0.180   4.735   5.060  0.8423 -0.0995 -1.4220
 3312SOL     MW12438   0.124   4.787   5.017  0.3488  0.2007 -0.4230
 3313SOL     OW12439   2.056   0.742   1.768  0.3977 -0.5560 -0.0155
 3313SOL    HW112440   1.981   0.713   1.716  0.3802  0.6173 -0.6598
 3313SOL    HW212441   2.058   0.837   1.757  2.2129 -0.6038 -0.3245
 3313SOL     MW12442   2.047   0.750   1.760  0.6278 -0.4119 -0.1376
 3314SOL     OW12443   1.983   3.035   0.727 -0.0621 -0.3595 -0.0136
 3314SOL    HW112444   2.041   3.110   0.741  0.2819 -0.9609  1.9921
 3314SOL    HW212445   1.949   3.015   0.815 -1.2967 -1.6278 -0.7610
 3314SOL     MW12446   1.986   3.042   0.740 -0.1760 -0.5989  0.1475
 3315SOL     OW12447   3.109   3.452   0.686  0.3116 -0.4712  0.5778
 3315SOL    HW112448   3.128   3.533   0.638  1.3262 -1.0115  0.0518
 3315SOL    HW212449   3.100   3.479   0.777 -0.5131  0.4022  0.2429
 3315SOL     MW12450   3.110   3.466   0.691  0.3357 -0.4287  0.4675
 3316SOL     OW12451   0.955   5.272   3.856  0.1687 -0.1485  0.0405
 3316SOL    HW112452   1.045   5.252   3.830  0.1599  0.2488 -0.3030
 3316SOL    HW212453   0.924   5.335   3.791 -0.9532 -1.6082 -0.8820
 3316SOL     MW12454   0.962   5.278   3.844  0.0240 -0.2847 -0.1216
 3317SOL     OW12455   2.271   4.349   0.972 -0.3930 -0.2154 -0.6110
 3317SOL    HW112456   2.178   4.372   0.972 -0.1196  0.9281  0.0593
 3317SOL    HW212457   2.313   4.417   1.024  0.4957 -2.0429  1.1755
 3317SOL     MW12458   2.265   4.360   0.979 -0.2441 -0.3033 -0.2966
 3318SOL     OW12459   2.971   0.708   3.035  0.5182  0.5757 -0.2349
 3318SOL    HW112460   3.000   0.705   3.126 -0.8268  0.9734  0.2248
 3318SOL    HW212461   2.934   0.796   3.025 -0.8333 -0.0411 -0.6896
 3318SOL     MW12462   2.970   0.719   3.045  0.1729  0.5476 -0.2344
 3319SOL     OW12463   0.899   1.038   0.368 -0.4527  0.5890  0.2193
 3319SOL    HW112464   0.842   0.986   0.425  0.3413  0.4033  0.8662
 3319SOL    HW212465   0.855   1.039   0.283 -0.9380 -0.3465  0.4554
 3319SOL     MW12466   0.886   1.031   0.365 -0.4131  0.4454  0.3323
 3320SOL     OW12467   5.266   2.682   0.161 -0.1791 -0.2727 -0.0057
 3320SOL    HW112468   5.265   2.588   0.140 -1.2816 -0.1784 -0.4086
 3320SOL    HW212469   5.209   2.689   0.238 -0.1722  0.0869 -0.0356
 3320SOL     MW12470   5.259   2.671   0.168 -0.3195 -0.2146 -0.0611
 3321SOL     OW12471   1.496   5.700   4.230 -0.0383  0.2382 -0.1137
 3321SOL    HW112472   1.539   5.618   4.205 -0.4420 -0.2339  0.7181
 3321SOL    HW212473   1.559   5.742   4.288 -0.2996 -0.0139  0.3556
 3321SOL     MW12474   1.510   5.695   4.234 -0.1235  0.1450  0.0525
 3322SOL     OW12475   0.921   4.666   1.619 -0.2381 -0.0597 -0.2577
 3322SOL    HW112476   0.976   4.729   1.665 -0.0398  0.0319 -0.6176
 3322SOL    HW212477   0.961   4.581   1.638 -0.4528 -0.0691  0.1528
 3322SOL     MW12478   0.933   4.663   1.627 -0.2402 -0.0491 -0.2513
 3323SOL     OW12479   2.276   0.677   0.061 -0.9821  0.3684 -0.4453
 3323SOL    HW112480   2.183   0.672   0.040 -0.8764 -0.0049 -0.8193
 3323SOL    HW212481   2.319   0.625  -0.007 -0.6837 -1.2779  0.9785
 3323SOL     MW12482   2.270   0.670   0.050 -0.9301  0.1099 -0.3109
 3324SOL     OW12483   5.370   2.095   3.045  0.0162  0.3179  0.5716
 3324SOL    HW112484   5.287   2.066   3.007 -0.2951  1.7489  0.1309
 3324SOL    HW212485   5.352   2.184   3.076  1.4281  0.6883  0.3469
 3324SOL     MW12486   5.357   2.102   3.044  0.1574  0.5484  0.4864
 3325SOL     OW12487   4.330   5.340   3.573  0.0996  0.0290 -0.5361
 3325SOL    HW112488   4.288   5.328   3.659 -0.1072  0.4264 -0.5757
 3325SOL    HW212489   4.359   5.253   3.547 -2.4760 -0.6289 -1.4098
 3325SOL     MW12490   4.328   5.328   3.581 -0.2561 -0.0043 -0.6528
 3326SOL     OW12491   5.153   5.621   5.201  0.3862 -0.0790 -0.4245
 3326SOL    HW112492   5.072   5.571   5.202  0.1962  0.2283  1.1415
 3326SOL    HW212493   5.200   5.592   5.279  2.2183 -0.9256 -1.7969
 3326SOL     MW12494   5.149   5.611   5.211  0.5960 -0.1483 -0.3996
 3327SOL     OW12495   5.481   5.469   3.631  0.7166  0.0580  0.2886
 3327SOL    HW112496   5.487   5.561   3.655 -0.9846  0.5025 -0.9174
 3327SOL    HW212497   5.463   5.470   3.537 -1.6789 -1.4378  0.7038
 3327SOL     MW12498   5.479   5.481   3.622  0.1922 -0.0768  0.1872
 3328SOL     OW12499   1.055   4.361   2.134 -0.3287 -0.0289  0.3222
 3328SOL    HW112500   1.067   4.418   2.210 -0.4014 -0.9565  1.0348
 3328SOL    HW212501   1.009   4.416   2.070 -0.9757  0.5155  1.2406
 3328SOL     MW12502   1.051   4.376   2.136 -0.4209 -0.0777  0.5307
 3329SOL     OW12503   1.232   0.419   4.547 -0.4863 -0.1412 -0.1182
 3329SOL    HW112504   1.203   0.331   4.573 -1.3879 -0.0694 -0.8859
 3329SOL    HW212505   1.170   0.478   4.590 -0.5883  0.0708 -0.5607
 3329SOL     MW12506   1.220   0.415   4.556 -0.6149 -0.1049 -0.2728
 3330SOL     OW12507   2.695   3.650   4.707  0.3085  0.0594 -0.2077
 3330SOL    HW112508   2.784   3.619   4.723  0.3178 -0.2714 -0.8763
 3330SOL    HW212509   2.704   3.714   4.636 -0.0940 -0.6102 -0.8649
 3330SOL     MW12510   2.708   3.654   4.700  0.2582 -0.0687 -0.3777
 3331SOL     OW12511   3.668   4.886   4.578  0.0205 -0.6358 -0.0221
 3331SOL    HW112512   3.718   4.951   4.628 -0.6036 -0.3827  0.2746
 3331SOL    HW212513   3.732   4.850   4.517  0.4770 -0.0281  0.0839
 3331SOL     MW12514   3.683   4.890   4.577 -0.0010 -0.5260  0.0291
 3332SOL     OW12515   0.446   3.776   4.427 -0.3991 -0.7233 -0.4533
 3332SOL    HW112516   0.357   3.745   4.444 -0.6312  0.8455  1.3306
 3332SOL    HW212517   0.435   3.848   4.365 -0.2143 -1.5797 -1.4927
 3332SOL     MW12518   0.433   3.781   4.421 -0.4051 -0.6323 -0.3576
 3333SOL     OW12519   1.395   5.685   2.868 -0.1405 -0.0387 -0.0191
 3333SOL    HW112520   1.469   5.712   2.923  0.2675  0.9756 -1.0615
 3333SOL    HW212521   1.331   5.754   2.878  0.2087  0.4855 -1.3468
 3333SOL     MW12522   1.397   5.697   2.876 -0.0435  0.1578 -0.3226
 3334SOL     OW12523   4.584   3.537   0.864  0.0197 -0.3393  0.4692
 3334SOL    HW112524   4.620   3.455   0.900 -2.3348 -1.1660  1.0873
 3334SOL    HW212525   4.612   3.538   0.773  1.0928 -1.2351  0.7758
 3334SOL     MW12526   4.592   3.526   0.857 -0.1445 -0.5598  0.5876
 3335SOL     OW12527   5.699   1.914   2.384  0.1391  0.7090 -0.7378
 3335SOL    HW112528   5.705   1.922   2.479  2.3542 -1.5112 -0.6381
 3335SOL    HW212529   5.776   1.960   2.351 -1.1594  2.3518 -1.5489
 3335SOL     MW12530   5.710   1.921   2.392  0.2565  0.6351 -0.8290
 3336SOL     OW12531   2.166   0.256   2.691 -0.1474  0.5112 -0.4997
 3336SOL    HW112532   2.218   0.177   2.700 -0.4357  0.4425  0.5757
 3336SOL    HW212533   2.083   0.236   2.734 -0.0865  1.5119  0.1088
 3336SOL     MW12534   2.162   0.244   2.698 -0.1767  0.6305 -0.2840
 3337SOL     OW12535   0.430   1.502   0.302 -0.2248  0.0656 -0.3064
 3337SOL    HW112536   0.509   1.482   0.252 -0.1316 -0.7996  0.1790
 3337SOL    HW212537   0.398   1.585   0.265  0.7623  0.2844 -0.6735
 3337SOL     MW12538   0.436   1.510   0.291 -0.0865 -0.0172 -0.2912
 3338SOL     OW12539   4.401   2.798   3.309  0.1959 -0.2233 -0.2515
 3338SOL    HW112540   4.482   2.845   3.328  0.9456 -1.2600 -0.8511
 3338SOL    HW212541   4.416   2.756   3.224 -0.0536 -2.4328  0.7573
 3338SOL     MW12542   4.413   2.799   3.300  0.2599 -0.6387 -0.1991
 3339SOL     OW12543   1.878   2.437   5.571 -0.2231  0.7049 -0.0621
 3339SOL    HW112544   1.790   2.420   5.536  0.1244  0.2940 -0.7613
 3339SOL    HW212545   1.918   2.494   5.506  0.8237 -0.9718 -0.9221
 3339SOL     MW12546   1.872   2.442   5.558 -0.0446  0.4375 -0.2618
 3340SOL     OW12547   2.970   5.195   1.201 -0.1463  0.6853  0.4228
 3340SOL    HW112548   2.973   5.129   1.270  0.1470  1.1378  0.8499
 3340SOL    HW212549   3.062   5.214   1.183 -0.1919 -0.2967 -0.9375
 3340SOL     MW12550   2.983   5.189   1.208 -0.1147  0.6180  0.3034
 3341SOL     OW12551   1.769   1.367   2.066  0.1357  0.0899 -0.5211
 3341SOL    HW112552   1.837   1.389   2.130 -1.7372 -0.0003  1.5819
 3341SOL    HW212553   1.691   1.352   2.119 -1.7795  1.1378 -2.9404
 3341SOL     MW12554   1.768   1.368   2.081 -0.3493  0.2124 -0.5617
 3342SOL     OW12555   3.697   1.144   0.990  0.0023 -0.1176 -0.4602
 3342SOL    HW112556   3.669   1.214   0.931 -1.5566  0.3745  0.8353
 3342SOL    HW212557   3.640   1.153   1.067 -0.1927 -2.7648 -0.2537
 3342SOL     MW12558   3.686   1.154   0.992 -0.2222 -0.3936 -0.2679
 3343SOL     OW12559   1.977   2.347   2.188  0.0117 -0.6259  0.3612
 3343SOL    HW112560   2.040   2.392   2.245 -0.2547 -0.1765  0.3033
 3343SOL    HW212561   2.029   2.283   2.140 -0.0679 -2.4234  2.5702
 3343SOL     MW12562   1.992   2.345   2.189 -0.0328 -0.7985  0.6366
 3344SOL     OW12563   4.588   1.849   1.469 -0.2141  0.0963  0.4631
 3344SOL    HW112564   4.519   1.802   1.422 -0.6890 -1.1500  2.3679
 3344SOL    HW212565   4.547   1.877   1.551  0.7178  1.9072  0.3423
 3344SOL     MW12566   4.574   1.847   1.473 -0.1554  0.1684  0.6914
 3345SOL     OW12567   4.056   1.711   3.275 -0.4195  0.2268 -0.1337
 3345SOL    HW112568   4.068   1.616   3.275 -0.3966  0.2296 -0.0813
 3345SOL    HW212569   3.970   1.724   3.316 -1.0520  0.1520 -1.3888
 3345SOL     MW12570   4.046   1.701   3.280 -0.4978  0.2177 -0.2878
 3346SOL     OW12571   1.580   2.210   0.991  0.1938  0.5550 -0.7166
 3346SOL    HW112572   1.625   2.292   1.009  0.4785  0.7402 -2.1686
 3346SOL    HW212573   1.621   2.178   0.910  0.4625 -1.2826  0.1063
 3346SOL     MW12574   1.591   2.216   0.983  0.2645  0.3436 -0.7972
 3347SOL     OW12575   4.768   5.252   1.824 -0.2996 -0.1987  0.0865
 3347SOL    HW112576   4.742   5.174   1.874 -1.1152 -0.3230 -0.5268
 3347SOL    HW212577   4.835   5.294   1.879  1.3561 -2.2138 -0.3556
 3347SOL     MW12578   4.773   5.247   1.838 -0.1922 -0.4725 -0.0488
 3348SOL     OW12579   5.312   4.628   0.259  0.1478  0.4199 -0.5047
 3348SOL    HW112580   5.303   4.534   0.275  0.7639  0.8206  2.4805
 3348SOL    HW212581   5.372   4.659   0.327 -0.4783  3.0740 -1.0901
 3348SOL     MW12582   5.318   4.620   0.270  0.1464  0.8101 -0.1975
 3349SOL     OW12583   4.508   4.415   0.977  0.1244 -0.7258  0.0242
 3349SOL    HW112584   4.597   4.439   0.952 -0.4102  0.6350 -0.6755
 3349SOL    HW212585   4.452   4.465   0.916 -1.0997 -1.9491  0.1238
 3349SOL     MW12586   4.512   4.425   0.966 -0.1011 -0.7086 -0.0526
 3350SOL     OW12587   0.233   4.062   3.310  0.3974  0.4269  0.4316
 3350SOL    HW112588   0.201   3.975   3.334  0.5509  0.4565  0.7450
 3350SOL    HW212589   0.184   4.085   3.231  0.7131 -0.1525  0.0658
 3350SOL     MW12590   0.222   4.054   3.303  0.4575  0.3567  0.4249
 3351SOL     OW12591   2.344   0.919   3.045  0.0259  0.1959  0.0900
 3351SOL    HW112592   2.331   0.922   3.139 -1.7636 -0.4563 -0.1110
 3351SOL    HW212593   2.378   0.830   3.028 -0.3998  0.0445  0.0337
 3351SOL     MW12594   2.347   0.908   3.055 -0.2577  0.0930  0.0570
 3352SOL     OW12595   5.135   1.064   2.330  0.2108  0.3938  0.4534
 3352SOL    HW112596   5.181   1.094   2.408  1.3142  0.4106 -0.1928
 3352SOL    HW212597   5.181   0.984   2.305 -1.7722 -1.0688  1.3078
 3352SOL     MW12598   5.146   1.058   2.337  0.0982  0.2087  0.4802
 3353SOL     OW12599   2.961   5.747   3.757 -0.4667 -0.7942  0.1682
 3353SOL    HW112600   2.904   5.793   3.695  0.5101 -1.2670 -1.1255
 3353SOL    HW212601   2.965   5.804   3.833 -0.1852  0.7388 -0.9619
 3353SOL     MW12602   2.954   5.760   3.759 -0.3057 -0.6590 -0.1419
 3354SOL     OW12603   5.152   3.060   0.738 -0.1677 -0.7272  0.0569
 3354SOL    HW112604   5.138   3.054   0.833 -0.8973 -0.1410 -0.0071
 3354SOL    HW212605   5.068   3.090   0.703  0.2151 -0.5523 -0.7306
 3354SOL     MW12606   5.139   3.063   0.746 -0.2117 -0.6299 -0.0521
 3355SOL     OW12607   4.652   0.058   3.240  0.1981 -0.0776 -0.2315
 3355SOL    HW112608   4.610   0.098   3.316 -1.2098 -1.1988 -0.4037
 3355SOL    HW212609   4.724   0.007   3.276 -1.1711 -1.5358  0.4808
 3355SOL     MW12610   4.656   0.057   3.254 -0.1574 -0.4078 -0.1621
 3356SOL     OW12611   5.087   1.302   1.427  0.4803 -0.6787  0.0576
 3356SOL    HW112612   5.009   1.249   1.411  0.3695 -1.2511  2.3218
 3356SOL    HW212613   5.055   1.392   1.429 -0.0058 -0.8555  0.2869
 3356SOL     MW12614   5.073   1.307   1.425  0.4034 -0.7746  0.3768
 3357SOL     OW12615   1.152   5.174   3.216 -0.3122  0.2613 -0.0492
 3357SOL    HW112616   1.113   5.222   3.143 -0.4817 -1.7496 -1.3372
 3357SOL    HW212617   1.215   5.114   3.174 -1.4685 -1.9629  1.2813
 3357SOL     MW12618   1.155   5.172   3.201 -0.4820 -0.2809 -0.0439
 3358SOL     OW12619   4.235   5.341   3.823  0.4739 -0.3154  0.5895
 3358SOL    HW112620   4.208   5.249   3.818  1.1636 -0.5309  0.6431
 3358SOL    HW212621   4.154   5.390   3.831  0.0627 -0.8749 -0.0819
 3358SOL     MW12622   4.221   5.335   3.823  0.5097 -0.4144  0.5105
 3359SOL     OW12623   1.243   1.389   4.706 -0.3375 -0.1109 -0.4727
 3359SOL    HW112624   1.149   1.407   4.716 -0.8367 -1.4347 -2.4716
 3359SOL    HW212625   1.250   1.294   4.715  0.8925  0.0197  0.0486
 3359SOL     MW12626   1.232   1.380   4.709 -0.2441 -0.2635 -0.6614
 3360SOL     OW12627   0.932   2.189   4.222  0.0333  0.4680 -0.1875
 3360SOL    HW112628   0.869   2.241   4.171  0.8463 -1.1947 -2.9596
 3360SOL    HW212629   0.883   2.163   4.300 -1.6335  2.0582 -0.6533
 3360SOL     MW12630   0.917   2.193   4.225 -0.0760  0.4587 -0.6018
 3361SOL     OW12631   2.482   3.472   1.346 -0.1517 -0.6065  0.0695
 3361SOL    HW112632   2.435   3.518   1.277 -1.0460 -1.4057  0.1306
 3361SOL    HW212633   2.430   3.393   1.361  0.8820 -1.1922  0.5725
 3361SOL     MW12634   2.469   3.468   1.339 -0.1338 -0.7839  0.1417
 3362SOL     OW12635   0.416   5.974   1.977  0.4857  0.1974 -0.5492
 3362SOL    HW112636   0.351   5.903   1.978 -0.0046  0.6526  0.6522
 3362SOL    HW212637   0.497   5.932   1.948 -0.3139 -0.3904 -2.0019
 3362SOL     MW12638   0.418   5.959   1.973  0.3206  0.1802 -0.5813
 3363SOL     OW12639   0.632   3.345   1.941 -0.1960  0.0161 -0.0548
 3363SOL    HW112640   0.720   3.309   1.931 -0.2016 -0.4826  1.6011
 3363SOL    HW212641   0.642   3.439   1.925  0.5540 -0.1118 -0.3279
 3363SOL     MW12642   0.644   3.352   1.938 -0.1007 -0.0644  0.1222
 3364SOL     OW12643   3.280   5.108   4.814 -0.0127  0.0968 -0.1679
 3364SOL    HW112644   3.221   5.167   4.767 -1.7601 -1.7954 -0.4306
 3364SOL    HW212645   3.343   5.079   4.748 -1.2223 -0.9502 -0.9041
 3364SOL     MW12646   3.280   5.112   4.799 -0.3915 -0.2799 -0.2961
 3365SOL     OW12647   3.001   2.751   1.139 -0.0092  0.1988  0.5187
 3365SOL    HW112648   3.081   2.732   1.188  1.2055  2.4848 -0.4397
 3365SOL    HW212649   2.941   2.786   1.205  0.4845  0.3065  0.9221
 3365SOL     MW12650   3.004   2.753   1.154  0.2093  0.5054  0.4478
 3366SOL     OW12651   3.232   4.039   2.117  0.3877  0.1786  0.7493
 3366SOL    HW112652   3.221   4.093   2.195  1.9490  1.3694  0.1772
 3366SOL    HW212653   3.143   4.017   2.091 -0.2520  1.6489  1.5908
 3366SOL     MW12654   3.219   4.043   2.123  0.5057  0.5188  0.7839
 3367SOL     OW12655   1.836   4.581   4.647  0.4905  0.0319  0.1362
 3367SOL    HW112656   1.806   4.501   4.603 -0.8780 -0.2255  1.4945
 3367SOL    HW212657   1.825   4.650   4.582 -0.3574 -0.5442 -0.3374
 3367SOL     MW12658   1.831   4.579   4.633  0.2067 -0.0749  0.2489
 3368SOL     OW12659   3.799   4.235   2.114 -0.3215 -0.3006  0.0759
 3368SOL    HW112660   3.867   4.210   2.051 -0.9132  0.5059 -0.8958
 3368SOL    HW212661   3.779   4.155   2.161 -0.3180 -1.0591 -1.2035
 3368SOL     MW12662   3.805   4.222   2.112 -0.3970 -0.2947 -0.2122
 3369SOL     OW12663   1.926   5.111   1.237 -0.3045  0.2300 -0.1982
 3369SOL    HW112664   1.944   5.034   1.183 -3.0040  1.1754 -2.5815
 3369SOL    HW212665   1.866   5.079   1.304 -2.0645  0.3706 -1.6641
 3369SOL     MW12666   1.921   5.097   1.238 -0.8754  0.3691 -0.6909
 3370SOL     OW12667   1.308   1.992   3.983 -0.0114 -0.5485 -0.2692
 3370SOL    HW112668   1.317   2.032   3.897 -2.4004 -1.0017 -0.7726
 3370SOL    HW212669   1.213   1.982   3.995  0.1906  0.6197  2.9241
 3370SOL     MW12670   1.297   1.996   3.974 -0.2913 -0.4570  0.0749
 3371SOL     OW12671   2.086   1.766   4.366 -0.0129 -0.7783  0.1604
 3371SOL    HW112672   2.024   1.736   4.298 -0.4293  0.0792  0.1578
 3371SOL    HW212673   2.127   1.844   4.328 -1.0000  0.3146  1.3093
 3371SOL     MW12674   2.083   1.772   4.352 -0.1924 -0.5287  0.3071
 3372SOL     OW12675   1.885   3.680   0.681 -0.1126 -0.2048  0.0842
 3372SOL    HW112676   1.798   3.720   0.674  0.4345  0.9678  0.0244
 3372SOL    HW212677   1.930   3.707   0.602  0.0659 -1.4298 -0.2426
 3372SOL     MW12678   1.879   3.688   0.670 -0.0197 -0.2117  0.0347
 3373SOL     OW12679   1.184   3.234   3.623 -0.7492  0.2025  0.2045
 3373SOL    HW112680   1.229   3.312   3.657 -1.1262  1.1453 -1.4028
 3373SOL    HW212681   1.242   3.161   3.646 -1.4725  0.6402  3.7573
 3373SOL     MW12682   1.197   3.235   3.630 -0.8901  0.3791  0.4535
 3374SOL     OW12683   2.688   2.383   4.806  0.2215  0.6035 -0.5384
 3374SOL    HW112684   2.749   2.352   4.873 -0.7282 -0.1122  0.0078
 3374SOL    HW212685   2.619   2.428   4.855 -1.4702 -1.5583 -0.8418
 3374SOL     MW12686   2.687   2.385   4.820 -0.1166  0.2353 -0.5069
 3375SOL     OW12687   3.470   4.211   0.506 -0.4354  0.4726  0.5888
 3375SOL    HW112688   3.420   4.135   0.474  0.6450 -0.4676  1.0938
 3375SOL    HW212689   3.536   4.173   0.564  2.2081  1.5063 -1.6418
 3375SOL     MW12690   3.472   4.196   0.510  0.0412  0.4845  0.3679
 3376SOL     OW12691   3.181   4.431   2.116  0.0712  0.1176  0.1493
 3376SOL    HW112692   3.256   4.385   2.079 -2.0205 -1.4336 -2.3645
 3376SOL    HW212693   3.171   4.393   2.203  0.3857 -1.8737 -0.6455
 3376SOL     MW12694   3.189   4.420   2.122 -0.1562 -0.3357 -0.2739
 3377SOL     OW12695   3.890   0.277   2.904 -0.4398  0.4723 -0.1958
 3377SOL    HW112696   3.821   0.332   2.941 -0.5532 -0.8412  1.6110
 3377SOL    HW212697   3.845   0.226   2.837 -1.2774 -0.4487  1.0354
 3377SOL     MW12698   3.875   0.278   2.900 -0.5615  0.1863  0.1931
 3378SOL     OW12699   1.184   2.785   3.685  0.1577 -0.3333 -0.8429
 3378SOL    HW112700   1.182   2.844   3.760  1.0028  0.4415 -1.4220
 3378SOL    HW212701   1.202   2.699   3.722 -0.7554 -0.1801 -0.0274
 3378SOL     MW12702   1.186   2.782   3.699  0.1489 -0.2146 -0.8128
 3379SOL     OW12703   3.973   2.364   1.514 -0.1250  0.0250 -0.3514
 3379SOL    HW112704   4.030   2.437   1.491 -2.8736  2.3381 -0.0559
 3379SOL    HW212705   3.953   2.377   1.606 -2.1768  0.0061 -0.7762
 3379SOL     MW12706   3.978   2.375   1.523 -0.7396  0.3185 -0.3680
 3380SOL     OW12707   2.294   5.112   0.135  0.3733 -0.6816  0.8137
 3380SOL    HW112708   2.307   5.162   0.215  0.1665 -1.7790  1.5409
 3380SOL    HW212709   2.377   5.066   0.121  1.0956  1.0074 -0.6803
 3380SOL     MW12710   2.306   5.112   0.143  0.4394 -0.6061  0.7156
 3381SOL     OW12711   5.047   0.329   2.912  0.2941 -0.7525  0.0203
 3381SOL    HW112712   5.036   0.398   2.977  2.0753 -0.3327 -0.0961
 3381SOL    HW212713   5.140   0.306   2.917  0.0049 -2.2099 -0.8849
 3381SOL     MW12714   5.057   0.335   2.921  0.4849 -0.8853 -0.1106
 3382SOL     OW12715   0.733   2.621   2.296  0.1300 -0.4178 -0.4333
 3382SOL    HW112716   0.667   2.691   2.298 -0.2776 -0.8307  0.9032
 3382SOL    HW212717   0.692   2.551   2.246  0.2432 -0.0053 -1.1158
 3382SOL     MW12718   0.719   2.621   2.290  0.0923 -0.4182 -0.3493
 3383SOL     OW12719   0.521   5.870   4.354 -0.0251 -0.8156 -0.1036
 3383SOL    HW112720   0.496   5.804   4.290 -0.5607  0.0326 -0.7728
 3383SOL    HW212721   0.615   5.856   4.367 -0.4140 -2.6441  0.8546
 3383SOL     MW12722   0.530   5.860   4.347 -0.1434 -0.9413 -0.0663
 3384SOL     OW12723   5.320   0.745   0.548 -0.1391  0.0531 -0.0294
 3384SOL    HW112724   5.323   0.655   0.515 -1.9718  0.5047 -1.5277
 3384SOL    HW212725   5.358   0.798   0.479 -0.1565  0.5632  0.3483
 3384SOL     MW12726   5.325   0.740   0.535 -0.3757  0.1762 -0.1729
 3385SOL     OW12727   3.882   2.098   5.670  0.1059  0.0006 -0.2026
 3385SOL    HW112728   3.976   2.081   5.664 -0.1281 -1.2617 -0.4558
 3385SOL    HW212729   3.851   2.038   5.739 -0.5575  0.1922 -0.3262
 3385SOL     MW12730   3.890   2.088   5.678 -0.0091 -0.1364 -0.2508
 3386SOL     OW12731   1.486   1.070   0.558 -0.8107 -0.0042 -0.1196
 3386SOL    HW112732   1.478   1.015   0.636 -1.6654  0.7162  0.3103
 3386SOL    HW212733   1.459   1.157   0.587 -1.9117  0.0958 -1.4170
 3386SOL     MW12734   1.482   1.074   0.571 -1.0611  0.1007 -0.2307
 3387SOL     OW12735   0.339   0.131   4.624 -0.1023  0.0790 -0.8396
 3387SOL    HW112736   0.261   0.169   4.583  0.8333  1.9572 -0.9271
 3387SOL    HW212737   0.392   0.207   4.648  0.4098 -1.0618  1.8100
 3387SOL     MW12738   0.336   0.146   4.622  0.0831  0.1734 -0.5116
 3388SOL     OW12739   5.687   0.935   1.782  0.2755  0.1466  0.3361
 3388SOL    HW112740   5.773   0.940   1.738 -0.1129 -1.8534 -0.6894
 3388SOL    HW212741   5.626   0.912   1.712 -1.1977  1.9788  0.9786
 3388SOL     MW12742   5.690   0.933   1.767  0.0372  0.1251  0.2872
 3389SOL     OW12743   5.639   1.570   2.187 -0.2190  0.3198 -0.6493
 3389SOL    HW112744   5.598   1.639   2.239  0.9190 -0.4719  1.3609
 3389SOL    HW212745   5.597   1.490   2.218  2.3534 -0.4309  1.0078
 3389SOL     MW12746   5.628   1.569   2.198  0.2556  0.1224 -0.1798
 3390SOL     OW12747   5.132   2.603   4.397 -0.3560 -0.1466  0.0864
 3390SOL    HW112748   5.104   2.694   4.383 -1.2966 -0.6931 -1.7421
 3390SOL    HW212749   5.222   2.610   4.427 -0.7395  1.4275  0.9532
 3390SOL     MW12750   5.140   2.616   4.399 -0.5260 -0.0150 -0.0367
 3391SOL     OW12751   5.570   0.300   5.682  0.1723  0.1700  0.8005
 3391SOL    HW112752   5.623   0.317   5.760  0.5916 -2.9643  1.2482
 3391SOL    HW212753   5.489   0.261   5.716  1.7668 -4.5411 -0.4134
 3391SOL     MW12754   5.566   0.297   5.697  0.4296 -0.8343  0.7019
 3392SOL     OW12755   3.784   4.670   1.779  0.1028 -0.1958 -0.4241
 3392SOL    HW112756   3.696   4.685   1.813  0.3724 -1.3552  0.8377
 3392SOL    HW212757   3.828   4.755   1.787 -0.2362 -0.1478  0.9618
 3392SOL     MW12758   3.778   4.683   1.784  0.0939 -0.3386 -0.0852
 3393SOL     OW12759   1.502   5.423   4.772  0.2147 -0.2679  0.2498
 3393SOL    HW112760   1.519   5.514   4.798 -0.1365  0.2439 -1.2821
 3393SOL    HW212761   1.539   5.416   4.684  0.1260 -1.5825  0.3115
 3393SOL     MW12762   1.509   5.434   4.764  0.1583 -0.3710  0.0610
 3394SOL     OW12763   2.454   3.264   5.058 -0.0660 -0.1714 -0.3655
 3394SOL    HW112764   2.407   3.331   5.008 -0.7680 -0.5182 -0.1870
 3394SOL    HW212765   2.540   3.258   5.017 -0.2598  0.3162 -0.8433
 3394SOL     MW12766   2.459   3.272   5.047 -0.1807 -0.1533 -0.4039
 3395SOL     OW12767   5.676   1.334   1.984 -0.0466  0.7896  0.4116
 3395SOL    HW112768   5.640   1.370   1.903  0.8954  1.8709  0.4556
 3395SOL    HW212769   5.601   1.325   2.042 -0.5946  0.8247 -0.2859
 3395SOL     MW12770   5.662   1.338   1.981  0.0038  0.9326  0.3281
 3396SOL     OW12771   1.388   4.377   1.976 -0.4388 -1.1278  0.1136
 3396SOL    HW112772   1.419   4.392   2.065 -2.3868  0.9424  0.4719
 3396SOL    HW212773   1.468   4.357   1.927  1.3585  2.5102  1.3485
 3396SOL     MW12774   1.402   4.377   1.981 -0.4580 -0.3972  0.3176
 3397SOL     OW12775   2.767   1.806   2.789  0.3328 -0.2776  0.0382
 3397SOL    HW112776   2.701   1.872   2.810  0.3619 -0.1304 -0.3362
 3397SOL    HW212777   2.732   1.760   2.713  0.2924 -0.7265  0.3278
 3397SOL     MW12778   2.754   1.808   2.782  0.3314 -0.3163  0.0272
 3398SOL     OW12779   3.282   4.673   3.176  0.1780 -0.0942  0.1237
 3398SOL    HW112780   3.206   4.627   3.142 -1.3363  1.0309  1.8678
 3398SOL    HW212781   3.324   4.610   3.235 -0.1034 -0.3017  0.1024
 3398SOL     MW12782   3.278   4.659   3.179 -0.0520  0.0234  0.3443
 3399SOL     OW12783   5.471   3.752   5.041 -0.3621  0.3752 -0.2741
 3399SOL    HW112784   5.555   3.723   5.005  0.7038  2.4488  0.4498
 3399SOL    HW212785   5.472   3.718   5.131 -0.7112 -0.3493 -0.5362
 3399SOL     MW12786   5.482   3.744   5.048 -0.2704  0.5481 -0.2151
 3400SOL     OW12787   5.116   2.992   0.993  0.0049 -0.4806  0.1791
 3400SOL    HW112788   5.105   2.897   1.000 -0.1729 -0.3727  1.4456
 3400SOL    HW212789   5.157   3.018   1.075 -3.3475  1.0071  1.5030
 3400SOL     MW12790   5.120   2.983   1.005 -0.4468 -0.2763  0.5107
 3401SOL     OW12791   2.184   3.372   5.705  0.2713 -0.3179  0.2387
 3401SOL    HW112792   2.259   3.355   5.761  0.3710  0.8215  0.4670
 3401SOL    HW212793   2.112   3.326   5.747  0.4642  0.0790  1.0180
 3401SOL     MW12794   2.184   3.364   5.717  0.3085 -0.1211  0.3676
 3402SOL     OW12795   2.810   0.409   0.150  0.0392 -0.5378  0.1947
 3402SOL    HW112796   2.801   0.315   0.135  1.0842 -0.6559  0.2124
 3402SOL    HW212797   2.817   0.446   0.062 -3.7504 -0.0594  0.0236
 3402SOL     MW12798   2.810   0.402   0.137 -0.3123 -0.4917  0.1751
 3403SOL     OW12799   5.710   5.019   2.561  0.1490 -1.0981  0.0988
 3403SOL    HW112800   5.770   4.986   2.629  0.2899 -1.0340  0.0070
 3403SOL    HW212801   5.636   4.959   2.563  0.1693 -1.1169  0.2867
 3403SOL     MW12802   5.708   5.007   2.570  0.1698 -1.0920  0.1111
 3404SOL     OW12803   5.960   5.638   4.347  0.7538 -0.1421  0.5945
 3404SOL    HW112804   6.005   5.645   4.263  0.7152  0.2532  0.6054
 3404SOL    HW212805   6.012   5.692   4.406  0.0777  0.5823  0.5294
 3404SOL     MW12806   5.973   5.646   4.344  0.6623  0.0019  0.5875
 3405SOL     OW12807   1.257   1.955   1.221 -0.0095 -0.1408 -0.0650
 3405SOL    HW112808   1.279   2.020   1.153 -1.5741  0.1189 -0.3248
 3405SOL    HW212809   1.311   1.981   1.296  1.7027 -0.4049 -1.1660
 3405SOL     MW12810   1.267   1.967   1.222  0.0094 -0.1414 -0.2391
 3406SOL     OW12811   1.779   1.249   1.181 -0.0447  0.6140  0.2489
 3406SOL    HW112812   1.792   1.286   1.268 -1.2586 -1.5294  1.3895
 3406SOL    HW212813   1.815   1.314   1.121 -0.4474  2.7565  2.2648
 3406SOL     MW12814   1.785   1.262   1.184 -0.2517  0.6139  0.6529
 3407SOL     OW12815   5.815   2.566   4.264  0.2749  0.4577  0.9089
 3407SOL    HW112816   5.885   2.508   4.235 -0.6802  0.4183 -1.4109
 3407SOL    HW212817   5.824   2.569   4.360  3.0571  0.0070  0.6928
 3407SOL     MW12818   5.825   2.559   4.273  0.5093  0.3948  0.5841
 3408SOL     OW12819   4.245   5.392   0.085  0.0958  0.5152 -0.0007
 3408SOL    HW112820   4.204   5.345   0.158 -0.1191 -0.2357 -0.6049
 3408SOL    HW212821   4.173   5.439   0.044  0.2024  0.8675  0.2135
 3408SOL     MW12822   4.230   5.392   0.089  0.0820  0.4640 -0.0506
 3409SOL     OW12823   5.822   3.549   5.508 -0.2294 -0.7949  0.2669
 3409SOL    HW112824   5.749   3.561   5.448  1.0775  2.1688 -0.8106
 3409SOL    HW212825   5.884   3.495   5.458  0.0187  0.0335 -0.3297
 3409SOL     MW12826   5.821   3.543   5.494 -0.0300 -0.3095  0.0529
 3410SOL     OW12827   4.058   5.601   0.026 -0.1538  0.2345  0.2228
 3410SOL    HW112828   4.045   5.667   0.093 -1.1470  1.0404 -0.7437
 3410SOL    HW212829   3.974   5.554   0.022  0.1644 -0.3283  0.1005
 3410SOL     MW12830   4.045   5.603   0.034 -0.2403  0.2661  0.0839
 3411SOL     OW12831   5.946   0.398   1.355 -0.1046 -0.1705 -0.0168
 3411SOL    HW112832   6.041   0.390   1.350 -0.0063 -0.6830  2.1491
 3411SOL    HW212833   5.931   0.448   1.436 -1.6521  0.4793 -0.6875
 3411SOL     MW12834   5.956   0.404   1.365 -0.2909 -0.1529  0.1745
 3412SOL     OW12835   3.451   1.470   4.461  0.6370  0.8956  0.1838
 3412SOL    HW112836   3.458   1.392   4.517  1.2227 -0.4396 -1.7245
 3412SOL    HW212837   3.370   1.512   4.489  0.6090 -0.0726  1.6260
 3412SOL     MW12838   3.442   1.466   4.472  0.7083  0.6008  0.1240
 3413SOL     OW12839   0.852   4.900   0.592  0.3786 -0.1881  0.2508
 3413SOL    HW112840   0.791   4.974   0.588  1.9907  1.2067  0.9845
 3413SOL    HW212841   0.871   4.889   0.685  0.2153 -1.5035  0.1456
 3413SOL     MW12842   0.847   4.908   0.604  0.5641 -0.1779  0.3312
 3414SOL     OW12843   3.205   2.577   4.122  0.2490 -0.2898  0.1021
 3414SOL    HW112844   3.221   2.484   4.112 -0.3256 -0.4255  0.4502
 3414SOL    HW212845   3.117   2.583   4.159  1.3330  0.2765  2.7167
 3414SOL     MW12846   3.196   2.566   4.125  0.3140 -0.2346  0.4811
 3415SOL     OW12847   2.704   5.548   1.092  0.0075 -0.1818  0.0498
 3415SOL    HW112848   2.763   5.485   1.050 -1.4977  0.2136 -2.7569
 3415SOL    HW212849   2.688   5.614   1.025 -0.5186  1.8204  2.1065
 3415SOL     MW12850   2.710   5.548   1.078 -0.2527  0.1254 -0.0461
 3416SOL     OW12851   5.057   1.250   0.553  0.3736 -0.2206 -1.1731
 3416SOL    HW112852   5.104   1.168   0.566 -1.8087 -1.2459  0.7675
 3416SOL    HW212853   5.124   1.317   0.558  1.9400 -1.7708 -0.8270
 3416SOL     MW12854   5.071   1.248   0.556  0.2952 -0.5503 -0.8804
 3417SOL     OW12855   1.198   1.907   1.976  0.2683  0.1730 -0.2189
 3417SOL    HW112856   1.224   1.825   1.934  0.9013  0.3853 -0.2464
 3417SOL    HW212857   1.224   1.896   2.068  0.7926  0.5302 -0.3230
 3417SOL     MW12858   1.204   1.895   1.982  0.4165  0.2458 -0.2357
 3418SOL     OW12859   5.970   3.183   0.754 -0.2311 -0.3127 -0.7329
 3418SOL    HW112860   6.007   3.107   0.709  0.2195  0.9359 -2.5101
 3418SOL    HW212861   5.999   3.258   0.702 -0.6210  1.0906  1.0278
 3418SOL     MW12862   5.979   3.183   0.742 -0.2232  0.0267 -0.7350
 3419SOL     OW12863   0.688   4.343   4.582  0.0427  0.3809 -0.1173
 3419SOL    HW112864   0.701   4.251   4.562  1.7255  0.7511 -0.7590
 3419SOL    HW212865   0.668   4.344   4.676 -1.4132 -0.7519 -0.4006
 3419SOL     MW12866   0.687   4.331   4.592  0.0718  0.2832 -0.2360
 3420SOL     OW12867   4.630   2.434   5.269  0.2078 -0.6456  0.7846
 3420SOL    HW112868   4.639   2.513   5.323 -1.4252  0.0963 -0.0174
 3420SOL    HW212869   4.536   2.421   5.260  0.4613 -2.0245 -0.0778
 3420SOL     MW12870   4.619   2.442   5.275  0.0315 -0.7272  0.5713
 3421SOL     OW12871   4.542   0.855   2.466  0.5370 -0.3072  1.1353
 3421SOL    HW112872   4.485   0.812   2.402  0.9873  0.8809 -0.0810
 3421SOL    HW212873   4.591   0.784   2.507  0.4545 -1.0484 -0.0517
 3421SOL     MW12874   4.541   0.841   2.463  0.5841 -0.2500  0.8278
 3422SOL     OW12875   1.661   5.625   3.563  0.2844  0.1291  0.3611
 3422SOL    HW112876   1.588   5.582   3.519 -0.7471  1.9255  0.2632
 3422SOL    HW212877   1.724   5.555   3.578  0.0498 -0.8363 -2.6702
 3422SOL     MW12878   1.660   5.611   3.559  0.1223  0.2351 -0.0393
 3423SOL     OW12879   2.130   4.237   1.787 -0.1279  0.0359 -0.5283
 3423SOL    HW112880   2.052   4.182   1.785  0.2821 -0.6681  1.5642
 3423SOL    HW212881   2.097   4.327   1.786 -0.9728 -0.2631  0.5936
 3423SOL     MW12882   2.116   4.242   1.787 -0.1836 -0.0925 -0.1168
 3424SOL     OW12883   4.428   5.591   3.263  0.2415 -0.1060  0.2369
 3424SOL    HW112884   4.484   5.657   3.222 -0.1595 -0.7360 -1.4029
 3424SOL    HW212885   4.473   5.508   3.247 -2.1387 -0.8732 -3.0217
 3424SOL     MW12886   4.441   5.589   3.255 -0.1149 -0.2856 -0.3905
 3425SOL     OW12887   1.145   2.880   3.392 -0.1890 -0.0180  0.0575
 3425SOL    HW112888   1.052   2.902   3.400 -0.1959  0.6065 -1.4439
 3425SOL    HW212889   1.173   2.860   3.481 -1.3704  1.3811  0.7733
 3425SOL     MW12890   1.136   2.881   3.404 -0.3411  0.2410 -0.0432
 3426SOL     OW12891   1.204   5.728   1.506 -0.0881  0.2624 -0.7201
 3426SOL    HW112892   1.178   5.778   1.584  1.1338  1.1473 -0.8661
 3426SOL    HW212893   1.140   5.752   1.439 -1.5392 -0.9998  0.1748
 3426SOL     MW12894   1.192   5.737   1.508 -0.1175  0.2146 -0.6242
 3427SOL     OW12895   4.851   0.273   0.123  0.4558 -0.0012  0.3488
 3427SOL    HW112896   4.860   0.193   0.071 -1.5587  1.2293 -2.0257
 3427SOL    HW212897   4.797   0.248   0.198 -0.3479 -0.8383 -0.5001
 3427SOL     MW12898   4.845   0.260   0.126  0.0949  0.0492 -0.0638
 3428SOL     OW12899   2.512   4.049   1.606 -0.8952 -0.1135 -0.5566
 3428SOL    HW112900   2.538   3.968   1.562  2.3949  0.3356  0.4389
 3428SOL    HW212901   2.433   4.026   1.654 -1.1689 -2.1665 -1.9379
 3428SOL     MW12902   2.505   4.036   1.607 -0.5093 -0.3190 -0.6059
 3429SOL     OW12903   1.463   0.287   3.498 -0.4034 -0.5624 -0.2665
 3429SOL    HW112904   1.471   0.192   3.501  1.4506 -0.4160  0.1013
 3429SOL    HW212905   1.480   0.310   3.406 -2.2623 -0.6878 -0.6534
 3429SOL     MW12906   1.467   0.278   3.486 -0.4040 -0.5597 -0.2692
 3430SOL     OW12907   2.493   4.007   4.347 -0.0872  0.0555 -0.3669
 3430SOL    HW112908   2.555   4.050   4.405 -0.4519  0.9645 -0.6366
 3430SOL    HW212909   2.472   3.924   4.390 -0.1573  0.6128  0.6682
 3430SOL     MW12910   2.498   4.002   4.360 -0.1428  0.2432 -0.2689
 3431SOL     OW12911   5.508   5.441   4.904 -0.0915  0.3405 -0.2165
 3431SOL    HW112912   5.508   5.364   4.847 -2.5912  1.3265 -1.6394
 3431SOL    HW212913   5.458   5.413   4.980  0.0002  0.1992 -0.2070
 3431SOL     MW12914   5.502   5.427   4.906 -0.4001  0.4487 -0.3977
 3432SOL     OW12915   2.479   1.294   1.301  0.6428  1.0685  0.3601
 3432SOL    HW112916   2.437   1.209   1.282  0.2071  1.1321  1.0081
 3432SOL    HW212917   2.423   1.333   1.368  1.0793  1.6898  0.3613
 3432SOL     MW12918   2.466   1.288   1.307  0.6430  1.1561  0.4432
 3433SOL     OW12919   4.004   1.938   2.337 -0.6227 -0.3769  1.4572
 3433SOL    HW112920   4.046   2.007   2.388  2.6396  0.5403 -2.1823
 3433SOL    HW212921   4.060   1.862   2.349 -1.1128 -0.8034  1.0657
 3433SOL     MW12922   4.016   1.938   2.345 -0.2680 -0.3140  0.9413
 3434SOL     OW12923   1.017   4.344   4.414  0.1169 -0.1860  0.6503
 3434SOL    HW112924   1.047   4.381   4.497  1.8039 -0.2594  0.0828
 3434SOL    HW212925   1.045   4.408   4.348  0.4078 -1.0306 -0.0477
 3434SOL     MW12926   1.024   4.357   4.416  0.3700 -0.3033  0.4888
 3435SOL     OW12927   4.097   5.840   4.607  0.0935 -0.1785  0.7098
 3435SOL    HW112928   4.075   5.933   4.600 -0.6936 -0.3885  0.3417
 3435SOL    HW212929   4.046   5.797   4.539  1.5700 -0.7145 -0.0840
 3435SOL     MW12930   4.088   5.846   4.598  0.1817 -0.2742  0.5608
 3436SOL     OW12931   4.083   3.383   5.052 -0.8274  0.7255  0.2066
 3436SOL    HW112932   4.042   3.296   5.047 -0.3297  0.4708  0.4964
 3436SOL    HW212933   4.031   3.430   5.117  0.8560 -0.4381  2.4556
 3436SOL     MW12934   4.071   3.378   5.060 -0.5484  0.5438  0.5317
 3437SOL     OW12935   0.090   4.839   3.386 -0.2063  0.4518 -0.1049
 3437SOL    HW112936   0.125   4.756   3.420 -2.7800 -0.3310  0.7556
 3437SOL    HW212937   0.104   4.902   3.456 -1.2957 -0.0725  0.5964
 3437SOL     MW12938   0.096   4.836   3.399 -0.6752  0.2847  0.0949
 3438SOL     OW12939   0.859   2.866   3.907  0.9852 -0.0516 -1.2994
 3438SOL    HW112940   0.870   2.822   3.823 -0.0232 -0.6480 -1.1340
 3438SOL    HW212941   0.795   2.934   3.890 -1.7973 -2.3012 -0.3075
 3438SOL     MW12942   0.852   2.869   3.894  0.4999 -0.4158 -1.1513
 3439SOL     OW12943   2.161   2.218   2.038  0.3941  0.1761  0.1258
 3439SOL    HW112944   2.150   2.284   1.969 -0.0961 -0.7869 -0.7261
 3439SOL    HW212945   2.153   2.134   1.993  0.2987 -0.4699  1.3228
 3439SOL     MW12946   2.159   2.216   2.024  0.3192 -0.0298  0.1698
 3440SOL     OW12947   5.806   0.068   3.236  0.0989 -0.0307 -0.1051
 3440SOL    HW112948   5.872   0.079   3.167  0.6016  0.6915  0.4890
 3440SOL    HW212949   5.750  -0.002   3.203 -0.4568  1.1931 -1.8679
 3440SOL     MW12950   5.808   0.060   3.223  0.0920  0.2185 -0.2549
 3441SOL     OW12951   0.464   4.984   4.909 -0.4768 -0.4989  0.6067
 3441SOL    HW112952   0.473   4.890   4.893 -2.2101 -0.5823  0.0260
 3441SOL    HW212953   0.479   4.995   5.003  1.1901 -1.1441  0.4361
 3441SOL     MW12954   0.467   4.974   4.919 -0.4853 -0.5922  0.5107
 3442SOL     OW12955   5.669   5.162   3.434  0.2405  0.3652 -0.1041
 3442SOL    HW112956   5.690   5.093   3.496 -0.2681  0.0940 -0.2343
 3442SOL    HW212957   5.586   5.135   3.394 -2.1275  2.9738  2.7419
 3442SOL     MW12958   5.661   5.150   3.437 -0.1283  0.6642  0.2434
 3443SOL     OW12959   2.745   4.281   5.614 -0.5246  0.7379 -0.1873
 3443SOL    HW112960   2.719   4.190   5.603 -2.4059  1.1114  0.9977
 3443SOL    HW212961   2.780   4.286   5.703  1.2973  0.7956 -0.8871
 3443SOL     MW12962   2.746   4.270   5.624 -0.5324  0.7930 -0.1249
 3444SOL     OW12963   4.217   0.777   0.208  0.6607  0.0466  0.1740
 3444SOL    HW112964   4.132   0.817   0.225 -0.4139 -1.2575 -1.9147
 3444SOL    HW212965   4.256   0.832   0.140  1.3169  0.4151  0.8481
 3444SOL     MW12966   4.211   0.789   0.201  0.6075 -0.0731 -0.0071
 3445SOL     OW12967   3.425   3.304   0.985  0.5575  0.3651  0.5310
 3445SOL    HW112968   3.492   3.322   0.919  2.2209 -1.7565  1.5659
 3445SOL    HW212969   3.359   3.253   0.939  1.0446  0.0496  0.1811
 3445SOL     MW12970   3.425   3.300   0.971  0.8328  0.0532  0.6186
 3446SOL     OW12971   5.681   3.654   2.632  0.4358  0.8699  0.0622
 3446SOL    HW112972   5.775   3.673   2.638  1.3742 -3.4886  0.9672
 3446SOL    HW212973   5.656   3.632   2.722 -0.8455 -0.4999 -0.6170
 3446SOL     MW12974   5.690   3.654   2.644  0.3920  0.1364  0.0911
 3447SOL     OW12975   5.881   1.241   1.668 -0.0462 -0.0428  0.0660
 3447SOL    HW112976   5.900   1.148   1.679 -1.4998 -0.5648 -1.6499
 3447SOL    HW212977   5.790   1.244   1.638  0.5060  1.8149 -1.5674
 3447SOL     MW12978   5.872   1.230   1.665 -0.1616  0.1281 -0.3628
 3448SOL     OW12979   0.845   5.338   4.281 -0.5859 -0.9463  0.2319
 3448SOL    HW112980   0.875   5.364   4.193 -1.1120  0.5590  0.4850
 3448SOL    HW212981   0.916   5.366   4.339 -0.4668 -1.4851  0.3491
 3448SOL     MW12982   0.858   5.345   4.277 -0.6381 -0.8230  0.2794
 3449SOL     OW12983   4.130   5.822   3.456  0.4452 -0.1661  0.6573
 3449SOL    HW112984   4.050   5.854   3.414 -0.2025  0.1728  2.1143
 3449SOL    HW212985   4.157   5.747   3.403 -0.2408  0.3747 -0.4728
 3449SOL     MW12986   4.123   5.816   3.444  0.2742 -0.0534  0.6993
 3450SOL     OW12987   4.994   2.210   2.049  0.3995  0.0780 -0.2046
 3450SOL    HW112988   4.989   2.272   1.976  1.3819  0.9384  0.4243
 3450SOL    HW212989   5.048   2.138   2.016 -1.9573 -1.1942 -1.4289
 3450SOL     MW12990   5.001   2.209   2.035  0.2236  0.0255 -0.2809
 3451SOL     OW12991   2.246   3.534   3.438 -0.0679 -0.1540  0.2766
 3451SOL    HW112992   2.280   3.446   3.421 -2.3649 -0.9035 -0.5714
 3451SOL    HW212993   2.167   3.520   3.489  0.7850  1.5682  2.1456
 3451SOL     MW12994   2.241   3.521   3.442 -0.2527 -0.0291  0.4072
 3452SOL     OW12995   3.063   1.151   2.817  0.6970  0.0215  0.2198
 3452SOL    HW112996   3.095   1.236   2.847  1.4284  0.4952 -1.7835
 3452SOL    HW212997   3.008   1.119   2.888 -1.0837  3.0067  0.2706
 3452SOL     MW12998   3.060   1.158   2.830  0.5627  0.4642 -0.0300
 3453SOL     OW12999   1.312   4.655   1.494 -0.0105 -0.2040  0.0595
 3453SOL    HW113000   1.355   4.620   1.416 -1.7079  1.1450 -1.5162
 3453SOL    HW213001   1.245   4.714   1.461  0.8023  2.2744  2.5737
 3453SOL     MW13002   1.309   4.658   1.480 -0.1239  0.2856  0.1796
 3454SOL     OW13003   2.786   2.154   1.966 -0.3266  0.3644 -0.1081
 3454SOL    HW113004   2.726   2.102   2.019 -1.1568 -0.2991 -1.6733
 3454SOL    HW213005   2.865   2.100   1.959 -0.7919 -0.2418 -0.8249
 3454SOL     MW13006   2.789   2.140   1.972 -0.4926  0.2017 -0.4002
 3455SOL     OW13007   2.947   3.798   2.450 -0.0319  0.3879  0.0139
 3455SOL    HW113008   3.030   3.768   2.415 -1.1028 -0.1643 -2.1861
 3455SOL    HW213009   2.943   3.891   2.427 -0.5228  0.1408 -0.9116
 3455SOL     MW13010   2.957   3.806   2.443 -0.2317  0.2856 -0.3865
 3456SOL     OW13011   5.854   5.376   2.425 -0.2479  0.2156  0.2519
 3456SOL    HW113012   5.875   5.286   2.449  3.0284  0.5915 -0.9043
 3456SOL    HW213013   5.878   5.427   2.502  2.1669  0.5049 -0.6248
 3456SOL     MW13014   5.860   5.371   2.438  0.4807  0.3009 -0.0086
 3457SOL     OW13015   0.727   2.321   4.073  0.1148 -0.2898 -0.3220
 3457SOL    HW113016   0.702   2.304   3.982 -0.8644  0.5972 -0.2297
 3457SOL    HW213017   0.667   2.268   4.125 -1.2661  1.4118 -0.1184
 3457SOL     MW13018   0.717   2.312   4.068 -0.1873  0.0415 -0.2842
 3458SOL     OW13019   5.094   5.805   2.690 -0.1050  0.5447  0.4832
 3458SOL    HW113020   5.026   5.741   2.711  0.3874 -1.0594 -2.5060
 3458SOL    HW213021   5.055   5.890   2.711 -0.7784 -0.6831  4.4722
 3458SOL     MW13022   5.080   5.808   2.695 -0.1283  0.1826  0.6113
 3459SOL     OW13023   5.529   1.894   5.367  0.1549 -0.6739 -0.3114
 3459SOL    HW113024   5.483   1.973   5.340  2.0553  0.1845 -1.0862
 3459SOL    HW213025   5.495   1.876   5.455  0.0893  1.2944  0.0826
 3459SOL     MW13026   5.518   1.902   5.375  0.3896 -0.3121 -0.3600
 3460SOL     OW13027   1.494   1.889   3.714  0.1749  0.5864 -0.2285
 3460SOL    HW113028   1.485   1.976   3.752 -1.3729  0.8220 -1.0967
 3460SOL    HW213029   1.504   1.905   3.620  1.4769 -0.1075 -0.2261
 3460SOL     MW13030   1.494   1.902   3.707  0.1436  0.5277 -0.3393
 3461SOL     OW13031   1.137   5.148   4.453  0.1490 -0.0816  0.4041
 3461SOL    HW113032   1.074   5.078   4.438 -0.1291  0.2762 -0.0754
 3461SOL    HW213033   1.177   5.126   4.538 -0.7886 -0.1736  0.8262
 3461SOL     MW13034   1.134   5.136   4.462 -0.0067 -0.0477  0.3963
 3462SOL     OW13035   2.396   3.636   3.011  0.2140  0.5433  0.0353
 3462SOL    HW113036   2.358   3.563   3.059 -0.4979  0.0481 -1.2733
 3462SOL    HW213037   2.324   3.673   2.960  1.3388 -0.0936 -2.0768
 3462SOL     MW13038   2.382   3.632   3.011  0.2668  0.3982 -0.4027
 3463SOL     OW13039   3.109   4.888   3.842 -0.1389 -0.1391 -0.4405
 3463SOL    HW113040   3.136   4.894   3.934  0.3990 -0.0170 -0.6013
 3463SOL    HW213041   3.109   4.979   3.812 -0.8908 -0.1256 -0.3991
 3463SOL     MW13042   3.112   4.901   3.850 -0.1662 -0.1216 -0.4556
 3464SOL     OW13043   3.720   4.362   2.981 -0.1194 -0.5409 -0.1923
 3464SOL    HW113044   3.725   4.437   2.922 -0.3726 -0.6335 -0.3341
 3464SOL    HW213045   3.626   4.353   3.001  0.1716  0.8937  2.0517
 3464SOL     MW13046   3.708   4.370   2.976 -0.1147 -0.3691  0.0768
 3465SOL     OW13047   4.538   4.580   0.257 -0.1740  0.1535 -0.1516
 3465SOL    HW113048   4.513   4.671   0.244  0.4717  0.2596 -0.6842
 3465SOL    HW213049   4.519   4.538   0.173 -2.8046 -0.7639  0.8322
 3465SOL     MW13050   4.532   4.586   0.244 -0.4287  0.0491 -0.0938
 3466SOL     OW13051   5.756   1.878   0.164 -0.3121 -0.1995 -0.0421
 3466SOL    HW113052   5.811   1.945   0.204 -1.2629  0.3086  0.4356
 3466SOL    HW213053   5.756   1.898   0.071  2.5815 -1.8659 -0.4689
 3466SOL     MW13054   5.763   1.889   0.157 -0.0634 -0.3476 -0.0356
 3467SOL     OW13055   1.214   3.138   1.662  0.3241 -0.0628  0.0120
 3467SOL    HW113056   1.255   3.198   1.600 -0.0800 -0.5584 -0.7285
 3467SOL    HW213057   1.282   3.125   1.729  0.7492  0.4869 -0.3002
 3467SOL     MW13058   1.228   3.144   1.663  0.3266 -0.0560 -0.1227
 3468SOL     OW13059   0.772   0.463   5.533 -0.7119 -0.2092 -0.1651
 3468SOL    HW113060   0.785   0.408   5.610 -3.1208 -2.1651 -1.0876
 3468SOL    HW213061   0.698   0.519   5.556 -1.1172 -0.4498 -0.8834
 3468SOL     MW13062   0.764   0.463   5.546 -1.0722 -0.4904 -0.3748
 3469SOL     OW13063   0.960   5.392   2.541  0.0830 -0.4924  0.5050
 3469SOL    HW113064   0.957   5.335   2.618 -2.6760  1.4845  1.9226
 3469SOL    HW213065   1.052   5.389   2.513  1.2416 -0.9991  4.0722
 3469SOL     MW13066   0.972   5.384   2.548 -0.1218 -0.3042  1.1432
 3470SOL     OW13067   4.055   1.242   0.911 -0.8056 -0.1805  0.1963
 3470SOL    HW113068   4.081   1.179   0.844  0.0417  0.6078 -0.2183
 3470SOL    HW213069   4.136   1.285   0.936 -1.1571 -0.2667  1.5315
 3470SOL     MW13070   4.069   1.239   0.906 -0.7420 -0.0907  0.3141
 3471SOL     OW13071   3.554   3.254   1.322 -0.0309  0.0572  0.2885
 3471SOL    HW113072   3.559   3.196   1.247  1.1365 -0.9120  1.1034
 3471SOL    HW213073   3.468   3.235   1.361  0.4271 -1.2930  0.6768
 3471SOL     MW13074   3.544   3.244   1.318  0.1771 -0.2398  0.4425
 3472SOL     OW13075   5.412   5.814   3.361 -0.2097 -0.0153 -0.1168
 3472SOL    HW113076   5.349   5.742   3.364 -1.6667  1.2553  0.8535
 3472SOL    HW213077   5.451   5.816   3.449 -0.4868  0.6132  0.0021
 3472SOL     MW13078   5.409   5.805   3.373 -0.4315  0.2275  0.0226
 3473SOL     OW13079   3.114   2.689   1.658 -0.0738 -0.6133  0.2323
 3473SOL    HW113080   3.161   2.754   1.605  2.7624 -0.3053  2.9691
 3473SOL    HW213081   3.089   2.737   1.737 -3.8164 -1.1913 -0.5024
 3473SOL     MW13082   3.117   2.704   1.661 -0.1898 -0.6478  0.4886
 3474SOL     OW13083   1.921   2.889   3.412 -0.7676  0.0656  0.2170
 3474SOL    HW113084   1.933   2.980   3.437 -2.5792  0.1608  0.8749
 3474SOL    HW213085   2.002   2.845   3.439  0.5288  1.6573 -1.0503
 3474SOL     MW13086   1.933   2.895   3.419 -0.8334  0.2813  0.1388
 3475SOL     OW13087   2.979   0.360   5.631  0.3569  0.1605  0.5697
 3475SOL    HW113088   2.939   0.426   5.687  0.0279  0.5874 -0.1530
 3475SOL    HW213089   2.975   0.397   5.543  2.6039  0.3186  0.5062
 3475SOL     MW13090   2.973   0.373   5.627  0.6022  0.2354  0.4687
 3476SOL     OW13091   1.985   0.635   2.497 -0.2551 -0.2861 -0.3658
 3476SOL    HW113092   1.951   0.698   2.560 -3.0818 -0.2528 -1.8367
 3476SOL    HW213093   2.020   0.690   2.426  0.4417 -0.3621 -0.0888
 3476SOL     MW13094   1.986   0.650   2.496 -0.5277 -0.2916 -0.5190
 3477SOL     OW13095   5.476   2.259   1.746 -0.3884  0.3488 -0.1077
 3477SOL    HW113096   5.541   2.329   1.739  0.9615 -1.0494 -1.9758
 3477SOL    HW213097   5.440   2.269   1.834  2.2450  1.2468  0.9197
 3477SOL     MW13098   5.479   2.269   1.756  0.1221  0.2849 -0.2154
 3478SOL     OW13099   1.598   1.008   0.311 -0.2272  0.1216  0.1960
 3478SOL    HW113100   1.544   0.933   0.285 -0.1883  0.5625 -1.1907
 3478SOL    HW213101   1.580   1.019   0.405  0.1075 -1.8970  0.5366
 3478SOL     MW13102   1.589   1.000   0.320 -0.1792 -0.0803  0.0621
 3479SOL     OW13103   4.296   1.605   3.740 -0.3721 -0.6784 -0.3337
 3479SOL    HW113104   4.248   1.676   3.698  1.2296 -0.2159 -1.3991
 3479SOL    HW213105   4.325   1.549   3.669 -1.5826 -2.3954  0.4972
 3479SOL     MW13106   4.294   1.607   3.726 -0.3223 -0.8391 -0.3638
 3480SOL     OW13107   5.807   1.254   4.215  0.7290 -0.5000  0.1836
 3480SOL    HW113108   5.866   1.185   4.245  0.1134 -0.7346  0.8647
 3480SOL    HW213109   5.741   1.209   4.163  0.6128 -0.3654  0.2128
 3480SOL     MW13110   5.806   1.240   4.212  0.6351 -0.5128  0.2747
 3481SOL     OW13111   5.176   3.516   2.150 -0.4595  0.0270  1.1040
 3481SOL    HW113112   5.134   3.505   2.064  3.4299 -3.2452 -0.5416
 3481SOL    HW213113   5.159   3.433   2.195  0.6207  0.3383  2.1033
 3481SOL     MW13114   5.168   3.504   2.145  0.1769 -0.3521  1.0211
 3482SOL     OW13115   2.513   5.961   2.512  0.1207  0.6260 -0.0672
 3482SOL    HW113116   2.470   5.965   2.427  0.8736  1.4318 -0.4149
 3482SOL    HW213117   2.602   5.932   2.493 -0.1025 -0.5602  0.5993
 3482SOL     MW13118   2.519   5.958   2.499  0.1888  0.5774 -0.0262
 3483SOL     OW13119   1.791   2.655   3.850 -0.5360  0.0455  0.3365
 3483SOL    HW113120   1.818   2.688   3.764 -2.2833 -0.9351 -0.6056
 3483SOL    HW213121   1.793   2.560   3.841 -0.7998 -0.0593  1.3692
 3483SOL     MW13122   1.795   2.647   3.838 -0.7935 -0.0935  0.3483
 3484SOL     OW13123   0.631   3.518   1.401 -0.6174  0.6305 -0.4660
 3484SOL    HW113124   0.541   3.550   1.406 -0.5104  0.8862 -0.1941
 3484SOL    HW213125   0.675   3.581   1.345 -0.6206  0.4700 -0.6507
 3484SOL     MW13126   0.625   3.530   1.394 -0.6042  0.6425 -0.4548
 3485SOL     OW13127   5.145   5.268   1.693  0.7724  0.3582 -0.4233
 3485SOL    HW113128   5.127   5.359   1.669  0.1185  0.8529  1.8025
 3485SOL    HW213129   5.067   5.220   1.666  0.5155  0.7100 -0.3108
 3485SOL     MW13130   5.133   5.274   1.687  0.6557  0.4663 -0.1240
 3486SOL     OW13131   2.164   5.563   0.297  0.3838  0.8299 -0.0579
 3486SOL    HW113132   2.225   5.633   0.275  2.7070 -0.3745  2.2088
 3486SOL    HW213133   2.122   5.592   0.378  1.3194 -0.3084  0.8655
 3486SOL     MW13134   2.166   5.575   0.305  0.8013  0.5298  0.3505
 3487SOL     OW13135   4.332   0.803   5.352 -0.1457 -0.2501 -0.3545
 3487SOL    HW113136   4.239   0.780   5.344 -0.3093 -0.3182  1.6411
 3487SOL    HW213137   4.377   0.720   5.366 -0.0332  0.0050  0.8085
 3487SOL     MW13138   4.326   0.790   5.353 -0.1526 -0.2262  0.0496
 3488SOL     OW13139   1.807   2.260   2.568 -0.6070 -0.1359  0.0497
 3488SOL    HW113140   1.811   2.176   2.613 -0.8166 -1.1821 -1.8533
 3488SOL    HW213141   1.788   2.238   2.477 -1.4288  2.0221 -0.3206
 3488SOL     MW13142   1.805   2.246   2.562 -0.7390  0.0067 -0.2415
 3489SOL     OW13143   1.023   4.677   4.465  0.1178 -0.1170 -0.1138
 3489SOL    HW113144   1.032   4.748   4.528 -0.2513 -0.2906  0.1342
 3489SOL    HW213145   1.112   4.650   4.445  0.2568  0.3898 -0.1795
 3489SOL     MW13146   1.035   4.682   4.470  0.0885 -0.0744 -0.0906
 3490SOL     OW13147   4.268   0.812   3.543 -0.2105 -0.6495 -0.0361
 3490SOL    HW113148   4.336   0.778   3.485  0.2251 -1.2297  0.7909
 3490SOL    HW213149   4.313   0.875   3.599 -0.1614 -1.5993  1.0301
 3490SOL     MW13150   4.282   0.816   3.543 -0.1483 -0.8454  0.2067
 3491SOL     OW13151   5.532   2.689   0.336 -0.4054 -0.3618  0.4854
 3491SOL    HW113152   5.574   2.775   0.333  0.8522 -1.0158 -1.9048
 3491SOL    HW213153   5.439   2.707   0.331 -0.1974  0.9066  0.9996
 3491SOL     MW13154   5.526   2.703   0.335 -0.2184 -0.2835  0.2453
 3492SOL     OW13155   3.825   4.550   2.021 -0.2185  0.4378  0.0111
 3492SOL    HW113156   3.812   4.605   1.944  0.1905 -3.1952 -2.8169
 3492SOL    HW213157   3.739   4.543   2.061 -0.3891  2.5894  0.0412
 3492SOL     MW13158   3.812   4.556   2.016 -0.1884  0.2480 -0.3471
 3493SOL     OW13159   0.969   1.006   4.635 -0.6602  0.2903 -0.5275
 3493SOL    HW113160   1.054   1.040   4.663  0.3463 -2.7632  0.2474
 3493SOL    HW213161   0.905   1.052   4.691  0.7661 -0.2039  1.5649
 3493SOL     MW13162   0.971   1.017   4.646 -0.3489 -0.1639 -0.1607
 3494SOL     OW13163   2.612   5.225   1.289  0.0615  0.4170 -0.2651
 3494SOL    HW113164   2.579   5.299   1.238  1.2033 -0.4734 -2.3569
 3494SOL    HW213165   2.667   5.265   1.356 -2.6055  1.7034  1.2430
 3494SOL     MW13166   2.615   5.240   1.291 -0.1338  0.4678 -0.3397
 3495SOL     OW13167   3.083   2.652   0.517 -0.5635 -0.5331  0.3219
 3495SOL    HW113168   3.147   2.637   0.447 -0.7494 -0.3406  0.1072
 3495SOL    HW213169   3.129   2.707   0.580 -0.6739  0.0254 -0.0744
 3495SOL     MW13170   3.097   2.657   0.516 -0.6013 -0.4370  0.2437
 3496SOL     OW13171   4.356   1.345   2.715 -0.2844  0.5452 -0.1331
 3496SOL    HW113172   4.323   1.434   2.704 -0.6420  0.6878  1.8986
 3496SOL    HW213173   4.279   1.289   2.701 -0.9469  0.7696  2.3876
 3496SOL     MW13174   4.342   1.349   2.712 -0.4153  0.5922  0.4497
 3497SOL     OW13175   0.560   3.443   4.641 -0.2507  0.6492 -0.4631
 3497SOL    HW113176   0.552   3.348   4.655 -0.4673  0.6702 -0.4359
 3497SOL    HW213177   0.514   3.458   4.558  1.2170  0.4903 -1.3328
 3497SOL     MW13178   0.553   3.433   4.632 -0.0905  0.6313 -0.5708
 3498SOL     OW13179   0.487   2.989   1.707 -0.2517 -0.1824 -0.6716
 3498SOL    HW113180   0.491   2.949   1.794 -0.8881 -0.1429 -0.6234
 3498SOL    HW213181   0.439   3.071   1.720 -1.2163 -0.6460 -1.2326
 3498SOL     MW13182   0.481   2.995   1.720 -0.4566 -0.2367 -0.7374
 3499SOL     OW13183   2.078   2.833   0.043 -0.4208 -0.1864 -0.3100
 3499SOL    HW113184   2.071   2.787  -0.041 -1.3373 -0.6949  0.0373
 3499SOL    HW213185   2.065   2.925   0.021  0.9253 -0.1490 -0.9441
 3499SOL     MW13186   2.075   2.839   0.030 -0.3657 -0.2468 -0.3467
 3500SOL     OW13187   0.711   2.065   3.625 -0.5766 -0.2431 -0.5368
 3500SOL    HW113188   0.797   2.107   3.629 -1.7350  2.5227 -2.8982
 3500SOL    HW213189   0.706   2.013   3.705  2.6368  0.8442  0.4372
 3500SOL     MW13190   0.721   2.064   3.636 -0.3135  0.2503 -0.7143
 3501SOL     OW13191   1.939   3.788   3.265  0.3052  0.4234  0.2359
 3501SOL    HW113192   2.033   3.768   3.258  0.2035 -0.3237  0.9590
 3501SOL    HW213193   1.927   3.814   3.356 -0.6621 -2.0322  0.8474
 3501SOL     MW13194   1.950   3.789   3.275  0.1683  0.0136  0.4067
 3502SOL     OW13195   1.307   1.702   0.531  0.2043  0.0030 -0.6056
 3502SOL    HW113196   1.237   1.647   0.565 -0.3803  0.5693 -0.8907
 3502SOL    HW213197   1.358   1.644   0.474 -0.3202 -0.2784 -0.7833
 3502SOL     MW13198   1.305   1.687   0.528  0.0625  0.0395 -0.6648
 3503SOL     OW13199   4.381   0.716   5.078  0.0016  0.1431 -0.1287
 3503SOL    HW113200   4.477   0.705   5.080  0.0766  1.0253  1.1920
 3503SOL    HW213201   4.358   0.742   5.167 -1.2191  2.0913 -0.9886
 3503SOL     MW13202   4.391   0.718   5.089 -0.1454  0.5054 -0.0701
 3504SOL     OW13203   3.635   0.267   3.715  0.3444 -0.7708 -0.0312
 3504SOL    HW113204   3.622   0.284   3.809  1.1437 -1.0049  0.1307
 3504SOL    HW213205   3.632   0.353   3.674 -0.3907 -0.7006  0.1555
 3504SOL     MW13206   3.633   0.280   3.722  0.3531 -0.7918  0.0136
 3505SOL     OW13207   1.398   5.725   0.017 -0.4028  0.0973  0.3318
 3505SOL    HW113208   1.311   5.757   0.040 -0.2455  0.0137  1.0523
 3505SOL    HW213209   1.393   5.630   0.028  0.1906  0.2253  1.7873
 3505SOL     MW13210   1.386   5.717   0.021 -0.3066  0.1030  0.6104
 3506SOL     OW13211   2.606   0.006   5.672 -0.3906  0.0879  0.4498
 3506SOL    HW113212   2.583  -0.056   5.602 -1.0749  1.6196 -0.7213
 3506SOL    HW213213   2.679  -0.035   5.718  1.0291 -0.3103 -2.0676
 3506SOL     MW13214   2.612  -0.007   5.669 -0.2964  0.2332 -0.0224
 3507SOL     OW13215   3.089   5.210   4.109 -0.3258 -0.0719 -0.6511
 3507SOL    HW113216   3.075   5.296   4.069  0.7588  0.1212 -0.6167
 3507SOL    HW213217   3.178   5.185   4.084 -0.2877 -0.7646  0.1333
 3507SOL     MW13218   3.098   5.218   4.101 -0.1819 -0.1364 -0.5465
 3508SOL     OW13219   0.190   1.392   0.210 -0.0297 -0.5533  0.0144
 3508SOL    HW113220   0.128   1.369   0.279 -0.5003 -0.6734 -0.4524
 3508SOL    HW213221   0.268   1.420   0.258 -0.1020 -1.3136  0.5985
 3508SOL     MW13222   0.192   1.392   0.225 -0.0992 -0.6659  0.0294
 3509SOL     OW13223   4.308   3.487   3.203  0.0972 -0.1755  0.2316
 3509SOL    HW113224   4.277   3.520   3.118  1.4949 -0.4744 -0.4169
 3509SOL    HW213225   4.262   3.540   3.267 -0.1306  0.8429 -0.7481
 3509SOL     MW13226   4.298   3.498   3.200  0.2470 -0.0834  0.0234
 3510SOL     OW13227   0.224   5.434   3.183 -0.4093  0.8624  0.2887
 3510SOL    HW113228   0.300   5.377   3.197 -2.1236 -1.5405  0.1526
 3510SOL    HW213229   0.242   5.477   3.099 -0.3149 -1.6461 -1.0490
 3510SOL     MW13230   0.236   5.432   3.174 -0.6167  0.2332  0.1001
 3511SOL     OW13231   2.761   4.534   5.475  0.1858  0.0797  0.2982
 3511SOL    HW113232   2.802   4.526   5.389 -3.1709 -2.0880 -1.2006
 3511SOL    HW213233   2.772   4.447   5.515  0.0496  0.5051  1.2671
 3511SOL     MW13234   2.767   4.522   5.469 -0.2615 -0.1431  0.2303
 3512SOL     OW13235   5.513   2.559   3.118  0.1805 -0.1260 -0.5859
 3512SOL    HW113236   5.515   2.618   3.043  1.6414  2.3981  1.3957
 3512SOL    HW213237   5.437   2.586   3.168  0.9604  0.1842  0.4297
 3512SOL     MW13238   5.504   2.570   3.114  0.4668  0.2367 -0.2022
 3513SOL     OW13239   2.796   2.500   5.824  0.0319 -0.2062 -0.3443
 3513SOL    HW113240   2.820   2.521   5.914 -1.7549 -3.0239  0.8765
 3513SOL    HW213241   2.861   2.435   5.797  0.6291  0.7139 -1.1327
 3513SOL     MW13242   2.808   2.494   5.832 -0.1202 -0.4492 -0.2890
 3514SOL     OW13243   0.145   2.559   2.678  0.1245 -0.1122 -0.2399
 3514SOL    HW113244   0.162   2.633   2.621 -3.6895  0.6980 -0.4552
 3514SOL    HW213245   0.096   2.596   2.752 -0.7285 -2.1800  0.2741
 3514SOL     MW13246   0.141   2.573   2.680 -0.4729 -0.2735 -0.2015
 3515SOL     OW13247   5.423   1.633   5.372  0.8410 -0.2018  0.1446
 3515SOL    HW113248   5.443   1.725   5.354 -0.1818  0.0259  0.1248
 3515SOL    HW213249   5.372   1.635   5.453 -2.6894 -0.3409 -1.9288
 3515SOL     MW13250   5.419   1.645   5.380  0.2580 -0.1905 -0.1235
 3516SOL     OW13251   0.138   4.013   4.424  0.1398  0.1324 -0.3054
 3516SOL    HW113252   0.053   4.037   4.386  0.7929  1.8165 -0.7418
 3516SOL    HW213253   0.116   3.971   4.507 -1.1437 -0.0898 -0.7411
 3516SOL     MW13254   0.124   4.011   4.430  0.0591  0.3190 -0.4172
 3517SOL     OW13255   3.542   1.992   5.711  0.2459 -0.3930 -0.3191
 3517SOL    HW113256   3.623   1.965   5.755  1.0984  0.3742 -1.3622
 3517SOL    HW213257   3.481   1.920   5.727  0.2145  0.2865  2.8732
 3517SOL     MW13258   3.545   1.979   5.719  0.3510 -0.2078 -0.0434
 3518SOL     OW13259   0.261   0.989   4.754  0.1262 -0.5957 -0.3581
 3518SOL    HW113260   0.350   1.018   4.773  0.1859 -1.3743  0.6149
 3518SOL    HW213261   0.257   0.984   4.658 -0.0809  3.1256 -0.5889
 3518SOL     MW13262   0.272   0.992   4.744  0.1073 -0.2190 -0.2632
 3519SOL     OW13263   0.668   0.368   1.382 -0.2590 -0.0648  0.1874
 3519SOL    HW113264   0.664   0.387   1.475 -0.7485  0.6579  0.0169
 3519SOL    HW213265   0.621   0.440   1.340 -2.6626 -1.9199 -0.4170
 3519SOL     MW13266   0.662   0.379   1.388 -0.6294 -0.2097  0.0882
 3520SOL     OW13267   1.016   0.196   1.847  0.0188 -0.2633  0.3160
 3520SOL    HW113268   0.957   0.145   1.791 -1.7575  2.0798 -0.0304
 3520SOL    HW213269   0.968   0.206   1.929  0.3946  0.7381  0.4179
 3520SOL     MW13270   1.003   0.191   1.850 -0.1607  0.1649  0.2847
 3521SOL     OW13271   1.136   1.468   0.140  0.7125 -0.3501  0.4386
 3521SOL    HW113272   1.084   1.537   0.099  1.5573  0.3237  0.4805
 3521SOL    HW213273   1.079   1.391   0.140 -0.4795  0.5269  1.0023
 3521SOL     MW13274   1.122   1.467   0.135  0.6680 -0.1516  0.5161
 3522SOL     OW13275   4.895   4.243   3.032 -0.4050 -0.1634 -0.2590
 3522SOL    HW113276   4.958   4.204   2.972  0.4555  4.1540 -2.3816
 3522SOL    HW213277   4.891   4.182   3.105  4.6351 -1.6964 -1.0372
 3522SOL     MW13278   4.903   4.230   3.034  0.3505  0.1926 -0.6306
 3523SOL     OW13279   5.868   0.918   2.493 -0.0323 -0.1941 -0.8652
 3523SOL    HW113280   5.939   0.871   2.538 -0.1849 -0.0261 -0.4440
 3523SOL    HW213281   5.894   1.010   2.498 -0.9560  0.0130  0.5302
 3523SOL     MW13282   5.881   0.924   2.499 -0.1702 -0.1461 -0.6325
 3524SOL     OW13283   1.877   5.083   2.164  0.7841 -0.5555 -0.0463
 3524SOL    HW113284   1.799   5.052   2.210  2.3145 -0.5001  2.7171
 3524SOL    HW213285   1.843   5.132   2.089 -1.7855 -1.7477  0.2831
 3524SOL     MW13286   1.863   5.085   2.160  0.6511 -0.7014  0.3495
 3525SOL     OW13287   2.919   4.782   5.042 -1.2675  0.2676  0.0979
 3525SOL    HW113288   2.923   4.793   5.137 -1.3903 -0.4753  0.1971
 3525SOL    HW213289   2.835   4.818   5.016 -1.9270 -0.9600  0.4892
 3525SOL     MW13290   2.909   4.788   5.051 -1.3676  0.0153  0.1607
 3526SOL     OW13291   2.293   0.908   4.646 -0.1218 -0.4295 -0.2193
 3526SOL    HW113292   2.348   0.977   4.685 -1.2736  0.2411  0.2386
 3526SOL    HW213293   2.284   0.935   4.554 -4.4802  2.6784  0.9577
 3526SOL     MW13294   2.299   0.920   4.639 -0.8271  0.0542 -0.0100
 3527SOL     OW13295   0.835   5.163   2.346 -0.3445 -0.1108 -0.2524
 3527SOL    HW113296   0.750   5.123   2.368 -0.8707  1.0075 -0.1910
 3527SOL    HW213297   0.816   5.257   2.342  0.8517  0.1231 -0.4695
 3527SOL     MW13298   0.822   5.170   2.349 -0.2587  0.0625 -0.2723
 3528SOL     OW13299   4.605   1.801   3.352 -0.2643 -0.2075  0.4142
 3528SOL    HW113300   4.640   1.890   3.350 -1.1594  0.1149 -1.1013
 3528SOL    HW213301   4.565   1.794   3.439 -0.0059  0.7997  0.6253
 3528SOL     MW13302   4.604   1.812   3.363 -0.3457 -0.0373  0.2472
 3529SOL     OW13303   3.570   2.513   2.125  0.2801 -0.3460  0.3727
 3529SOL    HW113304   3.626   2.581   2.163  1.0342  0.1030 -1.4717
 3529SOL    HW213305   3.585   2.437   2.180  3.1408 -0.3837 -0.3520
 3529SOL     MW13306   3.579   2.512   2.137  0.7429 -0.2933  0.0439
 3530SOL     OW13307   3.626   4.461   5.324  0.0839  0.6501  0.3571
 3530SOL    HW113308   3.662   4.415   5.249  1.7404 -0.2251  1.6500
 3530SOL    HW213309   3.561   4.402   5.361 -0.1123  0.7201  0.1246
 3530SOL     MW13310   3.622   4.448   5.319  0.2708  0.5469  0.4926
 3531SOL     OW13311   4.572   4.218   0.801 -0.0750 -0.0232  0.7306
 3531SOL    HW113312   4.544   4.286   0.863 -0.9085 -0.6412  1.0355
 3531SOL    HW213313   4.648   4.256   0.757 -0.8209  1.3013  0.5559
 3531SOL     MW13314   4.578   4.232   0.804 -0.2775  0.0672  0.7473
 3532SOL     OW13315   1.024   4.788   0.226 -0.3687 -0.2329 -0.3133
 3532SOL    HW113316   1.048   4.867   0.273 -2.0193  0.2853 -0.3079
 3532SOL    HW213317   1.070   4.795   0.142 -0.2717  0.5731 -0.1911
 3532SOL     MW13318   1.033   4.799   0.221 -0.5677 -0.0629 -0.2970
 3533SOL     OW13319   3.240   2.481   1.415  0.2989 -0.3188 -0.0141
 3533SOL    HW113320   3.194   2.423   1.475  0.4375 -2.6592 -2.0768
 3533SOL    HW213321   3.324   2.498   1.457  0.9774 -3.0947 -0.1439
 3533SOL     MW13322   3.245   2.476   1.428  0.4036 -0.9737 -0.2948
 3534SOL     OW13323   5.506   4.426   5.321 -0.4518  0.0914  0.1317
 3534SOL    HW113324   5.416   4.403   5.301 -0.5102 -0.3688  0.9317
 3534SOL    HW213325   5.555   4.344   5.313  0.1653  0.6082 -1.7809
 3534SOL     MW13326   5.501   4.413   5.317 -0.3796  0.0992 -0.0110
 3535SOL     OW13327   3.946   0.802   3.490 -0.1067  0.2171 -0.1347
 3535SOL    HW113328   3.881   0.872   3.493 -1.2828 -0.7677 -1.5112
 3535SOL    HW213329   4.006   0.828   3.420  1.2716  1.3638  1.4657
 3535SOL     MW13330   3.945   0.814   3.481 -0.0806  0.2378 -0.1061
 3536SOL     OW13331   1.343   4.622   1.863 -0.4417 -1.2250  0.0851
 3536SOL    HW113332   1.301   4.656   1.942  0.0835 -2.0058  0.7062
 3536SOL    HW213333   1.362   4.530   1.884 -1.2214 -1.7227 -1.3194
 3536SOL     MW13334   1.340   4.614   1.876 -0.4742 -1.3890 -0.0151
 3537SOL     OW13335   1.002   0.640   3.760 -0.6808  0.2068  0.1004
 3537SOL    HW113336   0.931   0.576   3.760 -1.3627  0.9716  0.2760
 3537SOL    HW213337   1.069   0.600   3.816 -0.8642 -0.6212 -0.2635
 3537SOL     MW13338   1.002   0.626   3.767 -0.7917  0.1987  0.0761
 3538SOL     OW13339   1.306   2.047   4.392 -0.3506 -0.6967  0.4287
 3538SOL    HW113340   1.316   2.076   4.482  3.7180  0.0163 -0.1637
 3538SOL    HW213341   1.271   2.122   4.345  1.6737  0.4085  0.6295
 3538SOL     MW13342   1.303   2.060   4.397  0.4294 -0.4640  0.3781
 3539SOL     OW13343   2.625   0.334   1.022 -0.1957  0.2026  0.3146
 3539SOL    HW113344   2.606   0.426   1.007  0.9530  0.3143 -0.5324
 3539SOL    HW213345   2.720   0.326   1.012 -0.2018 -0.9662  0.9682
 3539SOL     MW13346   2.635   0.344   1.019 -0.0494  0.0673  0.2899
 3540SOL     OW13347   0.581   3.276   3.271 -0.2736  0.2236 -0.0576
 3540SOL    HW113348   0.652   3.327   3.311  0.0612  1.3396 -2.0113
 3540SOL    HW213349   0.504   3.332   3.277 -0.4939 -0.0886  0.0696
 3540SOL     MW13350   0.580   3.289   3.277 -0.2590  0.3264 -0.2916
 3541SOL     OW13351   1.827   0.943   3.974 -0.8650 -0.6476 -0.0426
 3541SOL    HW113352   1.860   0.919   3.887 -0.6004 -0.7596  0.0879
 3541SOL    HW213353   1.798   1.034   3.964 -0.0648 -0.3846 -0.0397
 3541SOL     MW13354   1.828   0.952   3.961 -0.7288 -0.6284 -0.0255
 3542SOL     OW13355   1.731   1.297   2.733  0.1663  0.1201  0.0957
 3542SOL    HW113356   1.687   1.317   2.650 -0.5893 -1.4725  0.0798
 3542SOL    HW213357   1.661   1.261   2.788  0.8367  0.4056  1.1425
 3542SOL     MW13358   1.716   1.295   2.730  0.1554 -0.0472  0.2279
 3543SOL     OW13359   3.346   3.615   1.632 -0.1517  0.3008  0.0236
 3543SOL    HW113360   3.358   3.522   1.651 -0.1727 -0.3090 -2.6639
 3543SOL    HW213361   3.408   3.632   1.561 -0.3901  2.2703  0.2675
 3543SOL     MW13362   3.356   3.605   1.625 -0.1848  0.4749 -0.2894
 3544SOL     OW13363   4.254   0.457   1.781  0.1139 -0.0144  0.9294
 3544SOL    HW113364   4.293   0.415   1.705 -0.4808 -1.2568  1.2914
 3544SOL    HW213365   4.160   0.439   1.772  0.0445 -0.1753  1.9549
 3544SOL     MW13366   4.247   0.449   1.770  0.0286 -0.1940  1.1070
 3545SOL     OW13367   4.992   2.251   4.632  0.6168  0.4372  0.8828
 3545SOL    HW113368   4.903   2.278   4.611  1.0625  0.0067 -1.7081
 3545SOL    HW213369   4.984   2.206   4.717 -1.7871 -0.5266  0.1906
 3545SOL     MW13370   4.980   2.249   4.640  0.3657  0.2589  0.4625
 3546SOL     OW13371   1.439   3.107   2.681  0.8230 -0.3085  0.0356
 3546SOL    HW113372   1.483   3.187   2.652 -1.5212  0.6944 -0.8955
 3546SOL    HW213373   1.484   3.037   2.634  1.2603  0.7084 -1.1040
 3546SOL     MW13374   1.451   3.109   2.671  0.5790 -0.0498 -0.2296
 3547SOL     OW13375   1.757   0.499   0.882  0.4904 -0.2768  0.0559
 3547SOL    HW113376   1.751   0.485   0.977  1.5517 -0.0195  0.1664
 3547SOL    HW213377   1.668   0.484   0.850  0.1543 -0.5010  1.0757
 3547SOL     MW13378   1.745   0.496   0.890  0.5834 -0.2726  0.2006
 3548SOL     OW13379   3.975   0.616   2.015  0.2604  0.1866 -0.0432
 3548SOL    HW113380   3.984   0.692   1.958  0.0071 -0.8718 -1.5244
 3548SOL    HW213381   3.927   0.552   1.963 -1.8791 -0.0508  2.0893
 3548SOL     MW13382   3.970   0.617   2.001 -0.0460  0.0207  0.0401
 3549SOL     OW13383   1.503   5.039   5.832  0.1778  0.3717  0.2272
 3549SOL    HW113384   1.462   4.982   5.767 -0.3246  0.0754  0.7879
 3549SOL    HW213385   1.551   4.979   5.889  2.6389  0.8587 -1.2917
 3549SOL     MW13386   1.504   5.024   5.831  0.4284  0.3953  0.1046
 3550SOL     OW13387   4.988   4.609   1.601  0.2674 -0.0344  0.4114
 3550SOL    HW113388   5.020   4.632   1.514 -0.7346 -0.1879 -0.0053
 3550SOL    HW213389   4.894   4.597   1.590  0.3919 -1.8114  1.1492
 3550SOL     MW13390   4.980   4.611   1.589  0.1550 -0.2818  0.4526
 3551SOL     OW13391   2.714   2.667   4.132  0.4728 -0.0924 -0.0023
 3551SOL    HW113392   2.770   2.691   4.058 -1.7875  1.3001 -1.3258
 3551SOL    HW213393   2.691   2.750   4.173 -0.2575 -0.6882  0.8193
 3551SOL     MW13394   2.718   2.681   4.128  0.0899  0.0095 -0.0668
 3552SOL     OW13395   3.884   3.633   2.034  0.2940 -0.4221  0.4461
 3552SOL    HW113396   3.907   3.721   2.065 -0.2991 -0.5962  1.4177
 3552SOL    HW213397   3.851   3.588   2.112  0.3399 -1.4228 -0.1013
 3552SOL     MW13398   3.882   3.639   2.048  0.2244 -0.5724  0.5007
 3553SOL     OW13399   3.511   5.062   2.005 -0.2824  0.4308 -0.0009
 3553SOL    HW113400   3.507   5.032   1.914  0.6344  0.3640 -0.0249
 3553SOL    HW213401   3.420   5.068   2.032 -0.5404 -0.4159 -0.6483
 3553SOL     MW13402   3.499   5.059   1.997 -0.1979  0.3138 -0.0869
 3554SOL     OW13403   3.740   1.848   2.443 -0.1006  0.3476  0.0725
 3554SOL    HW113404   3.716   1.785   2.375  0.0937  1.4734 -1.0627
 3554SOL    HW213405   3.832   1.868   2.425 -0.0519  0.6550  0.6651
 3554SOL     MW13406   3.749   1.843   2.432 -0.0696  0.5311  0.0031
 3555SOL     OW13407   0.699   4.380   2.645  0.2102  0.4411 -0.0358
 3555SOL    HW113408   0.737   4.294   2.628  0.6832  0.3577  1.3558
 3555SOL    HW213409   0.667   4.375   2.735  2.0177  2.3457  0.7623
 3555SOL     MW13410   0.700   4.369   2.654  0.5021  0.6742  0.2444
 3556SOL     OW13411   1.625   1.068   5.367 -0.0635 -0.1728  0.2786
 3556SOL    HW113412   1.706   1.088   5.414 -1.0983  0.7854  1.6575
 3556SOL    HW213413   1.633   0.976   5.344  0.5592 -0.5839  2.1033
 3556SOL     MW13414   1.637   1.059   5.370 -0.1163 -0.1029  0.6886
 3557SOL     OW13415   1.223   4.017   4.071 -0.1948 -0.1255 -0.4153
 3557SOL    HW113416   1.179   4.085   4.020 -1.6014 -0.2489  0.5945
 3557SOL    HW213417   1.300   4.061   4.107 -0.2269  0.4937 -1.0911
 3557SOL     MW13418   1.227   4.031   4.069 -0.3790 -0.0620 -0.3729
 3558SOL     OW13419   3.438   1.863   3.560 -0.8599  0.3455  0.1508
 3558SOL    HW113420   3.392   1.827   3.636 -1.9392  1.4151  0.0119
 3558SOL    HW213421   3.372   1.916   3.515  1.2251  4.2834  1.4966
 3558SOL     MW13422   3.424   1.865   3.564 -0.7310  0.9867  0.3054
 3559SOL     OW13423   4.421   5.026   4.169  0.0629  0.0146  0.4783
 3559SOL    HW113424   4.384   5.110   4.140 -1.2565 -0.8966 -0.5445
 3559SOL    HW213425   4.388   4.963   4.105  1.7818 -1.1489  0.7160
 3559SOL     MW13426   4.412   5.029   4.157  0.1144 -0.2508  0.3777
 3560SOL     OW13427   4.946   5.117   1.206  0.5029  0.8898  0.0714
 3560SOL    HW113428   4.908   5.195   1.245  1.3421  0.3858  1.9614
 3560SOL    HW213429   4.991   5.074   1.278 -0.7566 -1.8502 -0.7176
 3560SOL     MW13430   4.947   5.121   1.220  0.4497  0.4745  0.2123
 3561SOL     OW13431   2.316   0.513   3.854  0.8481  0.0851 -0.8211
 3561SOL    HW113432   2.292   0.588   3.909 -1.4982 -0.0285 -1.6226
 3561SOL    HW213433   2.276   0.532   3.769  1.1844 -1.5633 -1.3745
 3561SOL     MW13434   2.308   0.525   3.850  0.5908 -0.1404 -0.9947
 3562SOL     OW13435   1.017   5.914   3.653  0.3489 -0.1610 -0.5407
 3562SOL    HW113436   0.967   5.834   3.637  0.2912 -0.0464 -0.9527
 3562SOL    HW213437   0.993   5.941   3.741 -1.8255  0.9821 -1.4478
 3562SOL     MW13438   1.008   5.907   3.662  0.0632  0.0000 -0.7098
 3563SOL     OW13439   4.941   4.846   4.669  0.4573 -0.3729  0.3759
 3563SOL    HW113440   5.036   4.839   4.676  0.8356 -1.0523 -3.9689
 3563SOL    HW213441   4.909   4.757   4.685  0.8830 -0.9090 -1.6309
 3563SOL     MW13442   4.949   4.834   4.672  0.5603 -0.5283 -0.4368
 3564SOL     OW13443   5.245   2.442   3.333  0.2776  0.8339 -0.7024
 3564SOL    HW113444   5.259   2.445   3.239 -0.7407  0.7637 -0.8668
 3564SOL    HW213445   5.232   2.349   3.352  0.6283  0.8314 -0.4680
 3564SOL     MW13446   5.245   2.430   3.324  0.1926  0.8249 -0.6936
 3565SOL     OW13447   1.504   5.285   1.654  0.3731 -0.3525 -0.1287
 3565SOL    HW113448   1.578   5.325   1.701  1.0710 -0.9879 -0.6857
 3565SOL    HW213449   1.438   5.270   1.722  2.0500 -2.8850  0.9737
 3565SOL     MW13450   1.505   5.288   1.669  0.6772 -0.7582 -0.0589
 3566SOL     OW13451   4.080   2.595   0.996 -0.4078  0.0163 -0.6111
 3566SOL    HW113452   4.044   2.679   1.024 -2.9876 -0.9723 -0.8276
 3566SOL    HW213453   4.114   2.612   0.908 -0.9363  0.8121 -0.6646
 3566SOL     MW13454   4.080   2.608   0.988 -0.8059 -0.0086 -0.6456
 3567SOL     OW13455   3.806   4.439   4.660  0.0073 -0.5042 -0.2012
 3567SOL    HW113456   3.823   4.438   4.565  1.3787  1.2411 -0.0061
 3567SOL    HW213457   3.773   4.527   4.677  0.2238 -0.6579  1.0209
 3567SOL     MW13458   3.804   4.450   4.650  0.2108 -0.3004 -0.0196
 3568SOL     OW13459   3.268   5.059   2.152  0.0797 -0.0469  0.6752
 3568SOL    HW113460   3.256   4.979   2.204  1.4294 -0.4952  0.3177
 3568SOL    HW213461   3.189   5.065   2.098  1.7076 -3.3675 -2.2766
 3568SOL     MW13462   3.256   5.049   2.152  0.4611 -0.5293  0.2515
 3569SOL     OW13463   4.838   5.166   2.511 -0.0978  0.0161 -0.2755
 3569SOL    HW113464   4.909   5.228   2.497  1.0616 -1.4637 -1.1443
 3569SOL    HW213465   4.758   5.217   2.494  0.8815  0.9545 -2.2557
 3569SOL     MW13466   4.837   5.180   2.507  0.1760 -0.0529 -0.6402
 3570SOL     OW13467   0.173   2.266   5.357  0.1336 -0.1474  0.4310
 3570SOL    HW113468   0.244   2.292   5.298  0.6486 -0.8391  0.7411
 3570SOL    HW213469   0.116   2.211   5.303 -0.6357  1.0910 -0.0572
 3570SOL     MW13470   0.175   2.262   5.342  0.1011 -0.0775  0.4082
 3571SOL     OW13471   1.866   3.841   1.567  0.2269  0.5585 -0.7325
 3571SOL    HW113472   1.909   3.911   1.615  0.4315 -0.5090  0.6602
 3571SOL    HW213473   1.773   3.850   1.588  0.3861 -0.2727  0.3531
 3571SOL     MW13474   1.860   3.851   1.576  0.2735  0.3154 -0.4152
 3572SOL     OW13475   4.861   5.533   3.897 -0.0375 -0.1173 -0.2338
 3572SOL    HW113476   4.933   5.523   3.835 -1.3399  0.9729 -1.9615
 3572SOL    HW213477   4.789   5.483   3.859 -1.0422  1.0561  0.0927
 3572SOL     MW13478   4.861   5.525   3.884 -0.3328  0.1721 -0.4134
 3573SOL     OW13479   3.946   4.161   4.746 -0.7800  0.1664 -0.0757
 3573SOL    HW113480   4.019   4.117   4.788 -0.0435  0.0038 -1.5100
 3573SOL    HW213481   3.917   4.225   4.811  0.4073  0.0107  0.6305
 3573SOL     MW13482   3.951   4.163   4.760 -0.5338  0.1259 -0.1693
 3574SOL     OW13483   1.533   1.941   2.560 -0.1645 -0.0852 -0.2888
 3574SOL    HW113484   1.462   1.920   2.620 -0.8232 -0.5139 -1.2110
 3574SOL    HW213485   1.490   1.955   2.476  0.6998  0.9929 -0.5604
 3574SOL     MW13486   1.519   1.940   2.557 -0.1382 -0.0020 -0.4416
 3575SOL     OW13487   1.960   2.370   4.575  0.2340 -0.4677  0.2680
 3575SOL    HW113488   1.926   2.343   4.660 -3.2490  0.8809 -0.6024
 3575SOL    HW213489   2.019   2.299   4.549 -0.7034 -2.1639  2.5853
 3575SOL     MW13490   1.963   2.358   4.583 -0.3320 -0.5121  0.4530
 3576SOL     OW13491   3.036   2.839   5.271  0.0468 -0.7453 -0.3310
 3576SOL    HW113492   2.950   2.834   5.229 -0.3526  1.4789  0.1777
 3576SOL    HW213493   3.017   2.828   5.364  0.4063 -0.8886 -0.2731
 3576SOL     MW13494   3.023   2.837   5.278  0.0415 -0.4790 -0.2584
 3577SOL     OW13495   3.883   5.126   3.379 -0.3058  0.5783  0.4912
 3577SOL    HW113496   3.790   5.128   3.355 -0.0052  0.1865 -0.7194
 3577SOL    HW213497   3.921   5.058   3.323  0.5723  0.2269  1.4998
 3577SOL     MW13498   3.876   5.118   3.369 -0.1550  0.4835  0.4654
 3578SOL     OW13499   0.709   2.834   4.856 -0.0241  0.0269 -0.2660
 3578SOL    HW113500   0.764   2.830   4.777  1.8699 -1.5292  1.0777
 3578SOL    HW213501   0.662   2.751   4.856  1.9808 -1.1437  1.6116
 3578SOL     MW13502   0.710   2.823   4.846  0.4750 -0.3223  0.1469
 3579SOL     OW13503   4.174   5.087   3.810  0.5768  0.1824  0.6290
 3579SOL    HW113504   4.135   5.049   3.731  1.0120  1.6026 -0.2775
 3579SOL    HW213505   4.222   5.014   3.850  0.2526 -0.5820 -0.3529
 3579SOL     MW13506   4.175   5.073   3.805  0.5913  0.2666  0.3874
 3580SOL     OW13507   3.750   5.084   1.688  0.2848 -0.0303 -0.0530
 3580SOL    HW113508   3.770   5.169   1.728  3.3393 -0.2569 -0.9169
 3580SOL    HW213509   3.803   5.022   1.737 -0.5051 -1.1741 -0.6242
 3580SOL     MW13510   3.760   5.087   1.699  0.5746 -0.2055 -0.2367
 3581SOL     OW13511   1.403   5.064   3.379 -0.1914  0.3488 -0.0977
 3581SOL    HW113512   1.319   5.025   3.402 -0.5049  0.8693 -0.3475
 3581SOL    HW213513   1.418   5.132   3.445 -0.4730  0.9643 -0.6606
 3581SOL     MW13514   1.394   5.067   3.390 -0.2676  0.4945 -0.2017
 3582SOL     OW13515   2.365   0.579   2.695 -0.8080 -0.0718 -0.3033
 3582SOL    HW113516   2.381   0.664   2.654  4.4107 -1.2222 -0.9200
 3582SOL    HW213517   2.312   0.531   2.631 -2.3062  2.0389 -0.7051
 3582SOL     MW13518   2.360   0.584   2.682 -0.3316  0.0511 -0.4337
 3583SOL     OW13519   1.224   4.585   0.840 -0.0199  0.1277 -0.0723
 3583SOL    HW113520   1.218   4.506   0.786 -2.6457 -0.9291  1.6602
 3583SOL    HW213521   1.221   4.553   0.930  0.6566  2.1120  0.6837
 3583SOL     MW13522   1.223   4.571   0.844 -0.2695  0.2460  0.2462
 3584SOL     OW13523   0.982   3.526   1.248  0.3066  0.2250  0.0288
 3584SOL    HW113524   0.975   3.559   1.338 -0.8193 -1.4850  0.5981
 3584SOL    HW213525   1.051   3.460   1.252 -0.6722 -0.8333 -0.0205
 3584SOL     MW13526   0.990   3.522   1.260  0.0371 -0.1292  0.0952
 3585SOL     OW13527   5.906   4.093   2.858 -0.3235 -0.4242  0.0223
 3585SOL    HW113528   5.865   4.172   2.825 -0.6929 -1.1663 -1.3020
 3585SOL    HW213529   5.847   4.022   2.833  1.2287 -1.3864 -0.9913
 3585SOL     MW13530   5.894   4.094   2.851 -0.1717 -0.6423 -0.2768
 3586SOL     OW13531   2.063   1.493   0.072  0.4001  0.1452 -0.2297
 3586SOL    HW113532   2.081   1.420   0.013  1.2093 -0.3545  0.6193
 3586SOL    HW213533   2.121   1.563   0.042  1.9497 -0.6199  0.9107
 3586SOL     MW13534   2.073   1.492   0.061  0.7021 -0.0168  0.0249
 3587SOL     OW13535   4.410   5.196   5.837  0.0524 -0.0294 -0.0100
 3587SOL    HW113536   4.398   5.186   5.742  0.4879 -1.3116  0.0565
 3587SOL    HW213537   4.363   5.276   5.859 -0.2938  0.1241 -1.2688
 3587SOL     MW13538   4.402   5.205   5.828  0.0639 -0.1740 -0.1626
 3588SOL     OW13539   3.856   3.410   2.952  0.0787 -0.9636  0.2428
 3588SOL    HW113540   3.870   3.342   3.018 -1.7692 -1.4855  0.1247
 3588SOL    HW213541   3.795   3.471   2.993 -1.8790 -1.8235 -1.3120
 3588SOL     MW13542   3.850   3.409   2.966 -0.4086 -1.1406  0.0286
 3589SOL     OW13543   3.321   2.899   4.622 -0.1025  0.2529  0.0751
 3589SOL    HW113544   3.343   2.918   4.531 -1.2640  2.0761  0.1473
 3589SOL    HW213545   3.394   2.845   4.654  1.8633  2.1450 -1.0552
 3589SOL     MW13546   3.333   2.895   4.615  0.0002  0.7286 -0.0601
 3590SOL     OW13547   2.688   1.557   4.722 -0.8005  0.6801 -0.1664
 3590SOL    HW113548   2.703   1.487   4.786  1.9381  1.3837  0.0182
 3590SOL    HW213549   2.661   1.632   4.775  1.7453  1.3457  0.2582
 3590SOL     MW13550   2.686   1.557   4.737 -0.1240  0.8554 -0.0887
 3591SOL     OW13551   4.969   0.223   0.981 -0.4053 -0.0452  0.4918
 3591SOL    HW113552   4.896   0.205   0.922  0.4343  0.4360 -0.7186
 3591SOL    HW213553   5.003   0.136   1.003 -0.0020 -0.1966 -0.6749
 3591SOL     MW13554   4.964   0.210   0.976 -0.2456 -0.0030  0.1876
 3592SOL     OW13555   2.162   0.591   5.108 -0.2335 -0.4214 -0.2595
 3592SOL    HW113556   2.147   0.585   5.202  0.4535 -0.1734 -0.1301
 3592SOL    HW213557   2.129   0.678   5.084  0.4925 -0.0923 -0.0723
 3592SOL     MW13558   2.156   0.602   5.117 -0.0527 -0.3474 -0.2184
 3593SOL     OW13559   2.158   0.598   3.619  0.0395 -0.1792 -0.0839
 3593SOL    HW113560   2.096   0.575   3.688 -1.4529  0.3394 -1.2351
 3593SOL    HW213561   2.143   0.691   3.603  0.2316 -0.3445 -1.2576
 3593SOL     MW13562   2.148   0.607   3.626 -0.1271 -0.1340 -0.3815
 3594SOL     OW13563   1.459   2.172   2.724  0.2195  0.2157  0.0011
 3594SOL    HW113564   1.529   2.195   2.784  0.5490  0.7660 -0.5884
 3594SOL    HW213565   1.494   2.101   2.671 -1.3420 -2.8569  2.8719
 3594SOL     MW13566   1.472   2.166   2.725  0.0619 -0.1073  0.2933
 3595SOL     OW13567   3.271   4.991   3.176  0.5020  0.5078 -0.1474
 3595SOL    HW113568   3.288   5.085   3.169  0.9228  0.4448 -0.0295
 3595SOL    HW213569   3.294   4.970   3.267  1.0073  0.1793 -0.3448
 3595SOL     MW13570   3.276   5.000   3.187  0.6206  0.4578 -0.1576
 3596SOL     OW13571   1.574   5.510   1.008 -0.0126  0.3547 -0.5859
 3596SOL    HW113572   1.545   5.577   0.945 -1.4454  0.2250 -0.0741
 3596SOL    HW213573   1.543   5.428   0.971 -0.2093  0.2025 -0.0829
 3596SOL     MW13574   1.567   5.508   0.995 -0.2213  0.3185 -0.4560
 3597SOL     OW13575   2.493   2.867   3.444  0.3212  0.2053  0.2911
 3597SOL    HW113576   2.434   2.937   3.472  0.8022  1.3098 -1.3417
 3597SOL    HW213577   2.513   2.819   3.524  0.4817  2.3401  1.5871
 3597SOL     MW13578   2.488   2.870   3.458  0.4034  0.6199  0.2480
 3598SOL     OW13579   3.811   1.597   4.928  0.1055 -0.0794  0.3235
 3598SOL    HW113580   3.744   1.600   4.860  1.5274 -1.2730 -1.1441
 3598SOL    HW213581   3.790   1.518   4.978 -0.4615  0.3653  0.8002
 3598SOL     MW13582   3.799   1.587   4.926  0.2148 -0.1752  0.1965
 3599SOL     OW13583   0.368   4.713   2.741  0.0150 -0.2908 -0.0928
 3599SOL    HW113584   0.277   4.687   2.754 -0.0931 -0.6249 -1.4460
 3599SOL    HW213585   0.380   4.714   2.646  0.9776  1.2733  0.0088
 3599SOL     MW13586   0.358   4.710   2.731  0.1243 -0.1335 -0.2527
 3600SOL     OW13587   2.036   0.903   4.741  0.3982 -0.4372  0.7589
 3600SOL    HW113588   2.125   0.903   4.707  0.6055 -0.7613  1.2915
 3600SOL    HW213589   2.009   0.995   4.739  0.2333 -0.5025 -0.7115
 3600SOL     MW13590   2.044   0.915   4.737  0.4039 -0.4871  0.6385
 3601SOL     OW13591   4.398   3.416   4.557  0.5507  0.5769  0.4098
 3601SOL    HW113592   4.313   3.461   4.555 -0.2909 -1.0046 -0.6129
 3601SOL    HW213593   4.412   3.395   4.649 -2.4209 -3.2506  0.1058
 3601SOL     MW13594   4.389   3.419   4.568  0.0625 -0.1156  0.2398
 3602SOL     OW13595   3.010   2.806   5.557 -0.2653  1.3868  0.2073
 3602SOL    HW113596   3.065   2.738   5.595 -1.7258  0.8484  1.3908
 3602SOL    HW213597   3.061   2.886   5.566  1.5288  0.4647 -1.2978
 3602SOL     MW13598   3.023   2.808   5.563 -0.2227  1.1997  0.1664
 3603SOL     OW13599   4.174   2.331   4.940 -0.8513  0.5814 -0.1466
 3603SOL    HW113600   4.174   2.293   4.853 -1.0668  1.1625 -0.4025
 3603SOL    HW213601   4.083   2.326   4.968 -0.3105 -2.3724  1.2737
 3603SOL     MW13602   4.162   2.326   4.933 -0.8097  0.2775  0.0029
 3604SOL     OW13603   5.869   1.430   5.507  0.0274 -0.8283 -0.3124
 3604SOL    HW113604   5.835   1.356   5.457  1.9944  0.0742 -3.1289
 3604SOL    HW213605   5.812   1.503   5.484  0.8176 -0.4544 -1.1056
 3604SOL     MW13606   5.857   1.430   5.498  0.3800 -0.6649 -0.7744
 3605SOL     OW13607   5.689   0.729   2.661  0.7785 -0.5780  0.0953
 3605SOL    HW113608   5.710   0.719   2.568  1.7018 -1.1564  0.3627
 3605SOL    HW213609   5.767   0.770   2.699  0.6917 -1.0127  0.7526
 3605SOL     MW13610   5.702   0.733   2.654  0.8860 -0.7078  0.2139
 3606SOL     OW13611   2.982   4.299   1.297 -0.2588  0.7113 -0.1939
 3606SOL    HW113612   2.960   4.282   1.388  0.0365  1.3056 -0.0117
 3606SOL    HW213613   2.933   4.379   1.275 -0.7227  0.2926 -0.6996
 3606SOL     MW13614   2.973   4.307   1.306 -0.2804  0.7334 -0.2353
 3607SOL     OW13615   2.881   0.465   3.254 -0.3378 -0.3483 -0.1975
 3607SOL    HW113616   2.802   0.518   3.248  1.2297  2.2018  0.9060
 3607SOL    HW213617   2.863   0.404   3.325 -0.7710  1.2248  1.0727
 3607SOL     MW13618   2.869   0.464   3.262 -0.1926  0.1796  0.1066
 3608SOL     OW13619   5.399   4.905   4.676  0.0483 -0.0534 -0.2560
 3608SOL    HW113620   5.403   4.898   4.581  0.4388  1.2323 -0.3457
 3608SOL    HW213621   5.448   4.829   4.708  0.0356 -0.4108 -1.0842
 3608SOL     MW13622   5.406   4.894   4.668  0.0963  0.0653 -0.3734
 3609SOL     OW13623   0.533   0.591   5.563  0.1306  0.3967 -0.3670
 3609SOL    HW113624   0.467   0.535   5.604  2.4375 -2.0290  0.1884
 3609SOL    HW213625   0.485   0.669   5.537 -2.8174 -1.0037  0.6028
 3609SOL     MW13626   0.519   0.594   5.565  0.0486 -0.0930 -0.1717
 3610SOL     OW13627   1.984   3.577   3.531 -0.6137  1.1819 -0.0805
 3610SOL    HW113628   1.912   3.530   3.573 -1.8433  0.8967 -2.4490
 3610SOL    HW213629   1.949   3.664   3.513  0.7634  2.1672  1.7840
 3610SOL     MW13630   1.971   3.582   3.534 -0.5947  1.2715 -0.1450
 3611SOL     OW13631   4.404   3.321   4.839 -0.3377 -0.7328 -0.0968
 3611SOL    HW113632   4.405   3.348   4.931 -1.2576 -0.9904 -0.0126
 3611SOL    HW213633   4.317   3.285   4.825  0.3962 -2.3540 -0.5987
 3611SOL     MW13634   4.393   3.320   4.849 -0.3619 -0.9735 -0.1497
 3612SOL     OW13635   0.549   0.896   2.851 -0.4450  0.0778 -0.4067
 3612SOL    HW113636   0.536   0.863   2.763 -0.5783  0.5044 -0.5493
 3612SOL    HW213637   0.616   0.964   2.842 -0.5485  0.2104 -0.2039
 3612SOL     MW13638   0.556   0.901   2.839 -0.4753  0.1494 -0.3989
 3613SOL     OW13639   4.058   0.454   2.348 -0.0213  0.5096 -0.4950
 3613SOL    HW113640   4.140   0.406   2.333  0.1113 -0.5220  3.0178
 3613SOL    HW213641   3.989   0.388   2.340 -0.0237  0.1627  2.0658
 3613SOL     MW13642   4.060   0.439   2.345 -0.0048  0.3332  0.2823
 3614SOL     OW13643   5.597   5.065   1.848 -1.0635  0.0172 -0.1742
 3614SOL    HW113644   5.502   5.063   1.833 -0.7218 -0.5946 -2.5208
 3614SOL    HW213645   5.630   4.987   1.803  0.4740 -0.2411  1.3479
 3614SOL     MW13646   5.589   5.055   1.840 -0.8230 -0.0939 -0.2798
 3615SOL     OW13647   0.057   3.409   2.502 -0.2844  0.3876 -0.1114
 3615SOL    HW113648   0.026   3.334   2.553  0.1075 -0.8428 -1.6404
 3615SOL    HW213649  -0.016   3.433   2.445  0.5234 -0.6624 -1.6404
 3615SOL     MW13650   0.044   3.403   2.501 -0.1308  0.0961 -0.5028
 3616SOL     OW13651   5.421   3.823   4.510 -0.4018 -0.0134  0.0435
 3616SOL    HW113652   5.427   3.886   4.438  1.0772 -0.7262 -0.4815
 3616SOL    HW213653   5.329   3.825   4.536 -0.5087  1.8472 -0.4200
 3616SOL     MW13654   5.410   3.831   4.504 -0.2265  0.1338 -0.0830
 3617SOL     OW13655   2.152   5.342   1.520 -0.5334  0.1229 -0.3261
 3617SOL    HW113656   2.103   5.370   1.443 -1.8611  0.4597  0.6244
 3617SOL    HW213657   2.241   5.327   1.488 -1.0615  0.2889 -1.9110
 3617SOL     MW13658   2.157   5.343   1.506 -0.7710  0.1874 -0.4072
 3618SOL     OW13659   4.675   0.235   4.811  0.2118  0.3273  0.1557
 3618SOL    HW113660   4.760   0.228   4.768 -0.7104  0.5536 -1.7627
 3618SOL    HW213661   4.644   0.145   4.818 -0.4869  0.4286 -1.4490
 3618SOL     MW13662   4.682   0.223   4.807  0.0048  0.3692 -0.2952
 3619SOL     OW13663   1.706   3.250   0.206 -0.0739  0.2196  0.0902
 3619SOL    HW113664   1.751   3.334   0.198 -0.7126  0.6005  0.5000
 3619SOL    HW213665   1.645   3.262   0.278  0.5939 -0.9472  0.8526
 3619SOL     MW13666   1.704   3.262   0.214 -0.0702  0.1187  0.2403
 3620SOL     OW13667   1.558   0.745   1.331  0.0837 -0.5254 -0.2463
 3620SOL    HW113668   1.479   0.773   1.377 -0.8401 -0.2905 -1.9371
 3620SOL    HW213669   1.578   0.816   1.271  2.7464  0.2962  1.5229
 3620SOL     MW13670   1.551   0.757   1.329  0.3064 -0.3902 -0.2364
 3621SOL     OW13671   5.627   0.802   3.768  0.4834 -1.1470 -0.3182
 3621SOL    HW113672   5.607   0.793   3.675  0.7345 -1.4222 -0.3469
 3621SOL    HW213673   5.715   0.839   3.770 -1.0131  2.5840 -0.2192
 3621SOL     MW13674   5.636   0.805   3.756  0.3238 -0.7046 -0.3095
 3622SOL     OW13675   5.913   5.461   1.064  0.0702  0.6758  0.0113
 3622SOL    HW113676   5.818   5.460   1.080  0.2596  1.7535  1.2679
 3622SOL    HW213677   5.923   5.422   0.978 -1.7952  3.5463 -1.5765
 3622SOL     MW13678   5.902   5.456   1.055 -0.1445  1.1811 -0.0311
 3623SOL     OW13679   2.810   3.499   3.652  0.2745  0.1435 -0.5467
 3623SOL    HW113680   2.856   3.442   3.591 -2.7273 -1.5107 -1.4034
 3623SOL    HW213681   2.766   3.563   3.597  2.3289  2.3565  0.3242
 3623SOL     MW13682   2.810   3.500   3.637  0.1531  0.2151 -0.5448
 3624SOL     OW13683   2.114   1.477   3.332  0.2146 -0.1020 -0.3658
 3624SOL    HW113684   2.177   1.449   3.398  0.1608  0.7882  0.0718
 3624SOL    HW213685   2.065   1.548   3.373  1.0089  1.3134 -1.7667
 3624SOL     MW13686   2.116   1.483   3.345  0.3095  0.1931 -0.4892
 3625SOL     OW13687   1.894   5.517   4.870 -0.8195  0.0196 -0.1619
 3625SOL    HW113688   1.892   5.461   4.793  0.7807  0.6741 -0.7069
 3625SOL    HW213689   1.983   5.509   4.904 -1.6469 -0.6534  1.9331
 3625SOL     MW13690   1.905   5.509   4.865 -0.7207  0.0181  0.0367
 3626SOL     OW13691   3.531   5.850   2.885 -0.1976 -0.6341  0.3179
 3626SOL    HW113692   3.492   5.825   2.969 -0.6415 -1.1586 -0.0394
 3626SOL    HW213693   3.464   5.830   2.821 -0.6190  1.6272  0.0201
 3626SOL     MW13694   3.518   5.844   2.888 -0.3088 -0.4120  0.2341
 3627SOL     OW13695   0.016   4.843   0.128  0.2932  0.4035  0.2753
 3627SOL    HW113696  -0.040   4.776   0.088  1.6830 -1.0973  0.7858
 3627SOL    HW213697   0.008   4.827   0.222 -2.1316  3.2307  0.6332
 3627SOL     MW13698   0.008   4.832   0.135  0.1607  0.5732  0.3865
 3628SOL     OW13699   1.532   4.117   3.866 -0.1668  0.3981  0.0949
 3628SOL    HW113700   1.561   4.058   3.797  2.6257  1.7945  0.0210
 3628SOL    HW213701   1.582   4.092   3.943 -1.3756  0.5467  0.9542
 3628SOL     MW13702   1.542   4.107   3.867  0.0360  0.5960  0.1953
 3629SOL     OW13703   5.034   3.369   4.043  0.3187 -0.3580  0.1131
 3629SOL    HW113704   4.974   3.377   4.117  0.5639 -2.0180  0.5123
 3629SOL    HW213705   4.998   3.428   3.976 -1.9743 -1.6098  0.2105
 3629SOL     MW13706   5.022   3.378   4.044  0.0563 -0.7308  0.1764
 3630SOL     OW13707   4.645   2.308   2.268  0.7666  0.0247 -0.3460
 3630SOL    HW113708   4.575   2.251   2.300  0.9544 -0.6921 -1.1999
 3630SOL    HW213709   4.713   2.302   2.335  1.5979 -2.3016 -1.3625
 3630SOL     MW13710   4.645   2.300   2.281  0.8969 -0.3645 -0.5856
 3631SOL     OW13711   3.154   5.279   0.902 -0.5885 -0.9305 -0.2634
 3631SOL    HW113712   3.086   5.212   0.913 -0.1731 -0.9915  2.2206
 3631SOL    HW213713   3.190   5.291   0.990  0.9163  0.9127 -1.1023
 3631SOL     MW13714   3.150   5.272   0.914 -0.3426 -0.7024 -0.0528
 3632SOL     OW13715   1.991   5.112   2.517 -0.2346 -0.3644  0.0688
 3632SOL    HW113716   1.970   5.201   2.491 -2.2495 -1.0947 -0.8846
 3632SOL    HW213717   1.949   5.100   2.603  0.9666 -0.0604  0.7170
 3632SOL     MW13718   1.983   5.122   2.525 -0.3388 -0.4191  0.0298
 3633SOL     OW13719   5.475   1.524   0.301  0.2706 -0.1862 -0.0516
 3633SOL    HW113720   5.455   1.590   0.367 -1.3159 -0.3697 -0.3215
 3633SOL    HW213721   5.509   1.573   0.227 -1.0965  0.3549 -0.3284
 3633SOL     MW13722   5.477   1.539   0.300 -0.1078 -0.1405 -0.1216
 3634SOL     OW13723   2.919   4.768   5.724 -0.8063 -0.2163 -0.5527
 3634SOL    HW113724   2.831   4.759   5.688 -0.6010  1.5216 -1.5400
 3634SOL    HW213725   2.933   4.862   5.733  1.0512 -0.4469 -0.6824
 3634SOL     MW13726   2.910   4.779   5.721 -0.5419 -0.0234 -0.6957
 3635SOL     OW13727   5.734   3.338   4.254  0.1555  0.8041 -1.0412
 3635SOL    HW113728   5.826   3.342   4.282  0.0368  0.8769 -0.6549
 3635SOL    HW213729   5.687   3.307   4.331 -0.1730  0.9791 -1.1690
 3635SOL     MW13730   5.740   3.335   4.268  0.0987  0.8359 -1.0080
 3636SOL     OW13731   4.864   4.117   4.734  0.1770  0.0220 -0.3821
 3636SOL    HW113732   4.809   4.072   4.669 -0.6788 -0.0523  0.3872
 3636SOL    HW213733   4.924   4.048   4.766  1.4646  0.3528 -1.9931
 3636SOL     MW13734   4.865   4.102   4.730  0.2322  0.0544 -0.4902
 3637SOL     OW13735   0.682   1.535   0.687 -0.1418  0.1849  0.3307
 3637SOL    HW113736   0.646   1.447   0.695 -0.9669  0.6606  2.0979
 3637SOL    HW213737   0.621   1.581   0.630 -0.1249 -0.1827  0.0193
 3637SOL     MW13738   0.670   1.529   0.681 -0.2453  0.1988  0.5170
 3638SOL     OW13739   2.654   4.616   0.687 -0.1383 -0.6953 -0.2039
 3638SOL    HW113740   2.612   4.571   0.614  1.8912 -2.6813 -0.2179
 3638SOL    HW213741   2.748   4.600   0.674  0.4781  1.5708  1.1250
 3638SOL     MW13742   2.661   4.608   0.676  0.2003 -0.6590 -0.0356
 3639SOL     OW13743   2.164   4.467   4.827 -0.3413  0.3645 -0.1988
 3639SOL    HW113744   2.115   4.439   4.904 -0.3569 -1.0648 -0.7102
 3639SOL    HW213745   2.169   4.562   4.835 -0.7541  0.2696  1.3104
 3639SOL     MW13746   2.158   4.476   4.838 -0.3960  0.1698 -0.0710
 3640SOL     OW13747   0.380   3.866   1.183  0.5417 -0.0484  0.5012
 3640SOL    HW113748   0.357   3.906   1.099 -1.1017  0.4293  1.1695
 3640SOL    HW213749   0.394   3.940   1.241 -1.7467 -0.4183  1.5496
 3640SOL     MW13750   0.379   3.881   1.180  0.0384 -0.0346  0.7211
 3641SOL     OW13751   3.595   5.986   5.718 -0.1364  0.2446  0.0806
 3641SOL    HW113752   3.611   6.079   5.704  2.3194 -0.0860  0.4619
 3641SOL    HW213753   3.566   5.980   5.809 -0.1029  0.6095  0.1133
 3641SOL     MW13754   3.593   5.997   5.728  0.1822  0.2489  0.1335
 3642SOL     OW13755   3.812   3.869   1.091  0.1864  0.4171  0.3690
 3642SOL    HW113756   3.875   3.814   1.138 -0.8818 -0.9594  0.1860
 3642SOL    HW213757   3.854   3.887   1.007 -1.0519 -3.2986 -1.1228
 3642SOL     MW13758   3.826   3.865   1.086 -0.1090 -0.2346  0.1547
 3643SOL     OW13759   2.182   0.912   4.020 -0.0434 -0.3392  0.6525
 3643SOL    HW113760   2.114   0.907   3.953  1.7187 -0.4406 -1.1732
 3643SOL    HW213761   2.207   1.004   4.022  1.7205 -0.7739 -0.6988
 3643SOL     MW13762   2.176   0.923   4.012  0.4079 -0.4078  0.2456
 3644SOL     OW13763   1.044   3.920   3.052  0.1812  0.0283 -0.5299
 3644SOL    HW113764   1.109   3.872   3.000  0.3963  0.6827 -0.8785
 3644SOL    HW213765   1.085   3.931   3.138 -0.3640 -1.4592 -0.0713
 3644SOL     MW13766   1.058   3.916   3.056  0.1390 -0.0782 -0.5159
 3645SOL     OW13767   1.369   5.564   1.815  0.2525  0.1742 -0.5243
 3645SOL    HW113768   1.318   5.541   1.893 -1.1599  1.5603 -1.0205
 3645SOL    HW213769   1.362   5.486   1.759  2.7981 -1.5523  1.4609
 3645SOL     MW13770   1.361   5.551   1.818  0.3976  0.1307 -0.3337
 3646SOL     OW13771   1.541   4.023   3.464 -0.3242  0.3181  0.0176
 3646SOL    HW113772   1.479   3.950   3.465 -0.1338  0.1671  0.5963
 3646SOL    HW213773   1.596   4.006   3.387 -0.1525 -0.2481  0.2641
 3646SOL     MW13774   1.540   4.011   3.454 -0.2779  0.2260  0.1235
 3647SOL     OW13775   1.553   4.369   5.740 -0.6223  0.2658 -0.2938
 3647SOL    HW113776   1.539   4.293   5.796 -0.4169  1.7951  1.9098
 3647SOL    HW213777   1.484   4.363   5.674 -0.9685 -1.5204  0.2049
 3647SOL     MW13778   1.542   4.359   5.739 -0.6404  0.2332  0.0520
 3648SOL     OW13779   2.033   0.314   1.305  0.0012 -0.1439  0.4166
 3648SOL    HW113780   2.058   0.223   1.322  1.1702  0.4773  2.2132
 3648SOL    HW213781   1.970   0.334   1.375  0.8504  0.8663  0.8952
 3648SOL     MW13782   2.028   0.305   1.316  0.2596  0.0649  0.7080
 3649SOL     OW13783   5.738   2.190   0.617 -0.5115  0.3311  0.6778
 3649SOL    HW113784   5.806   2.129   0.645  0.0362  0.5138 -0.2344
 3649SOL    HW213785   5.722   2.245   0.694  0.3693  0.2933  0.8922
 3649SOL     MW13786   5.744   2.189   0.631 -0.3290  0.3498  0.5885
 3650SOL     OW13787   0.014   4.157   3.767  0.2079  0.0723  0.0865
 3650SOL    HW113788   0.079   4.125   3.830  1.5023  2.8410  0.2097
 3650SOL    HW213789   0.061   4.159   3.684 -0.4395 -0.1820 -0.2879
 3650SOL     MW13790   0.029   4.153   3.765  0.2909  0.3943  0.0544
 3651SOL     OW13791   2.382   5.951   2.289 -0.1803  0.3754 -0.3968
 3651SOL    HW113792   2.346   5.863   2.306 -0.1895  0.7165  1.5190
 3651SOL    HW213793   2.305   6.007   2.280 -0.1938  0.0679 -2.5095
 3651SOL     MW13794   2.367   5.947   2.290 -0.1831  0.3800 -0.4225
 3652SOL     OW13795   2.791   5.264   3.181 -0.2255  0.3761 -0.5309
 3652SOL    HW113796   2.773   5.358   3.177  0.9341  0.7013  1.0774
 3652SOL    HW213797   2.855   5.255   3.252  0.6894 -1.4734 -1.5446
 3652SOL     MW13798   2.797   5.275   3.190  0.0401  0.1807 -0.4547
 3653SOL     OW13799   1.098   0.843   0.281 -0.3990  0.3785  0.4053
 3653SOL    HW113800   1.149   0.860   0.360  0.2812  1.8661 -0.3381
 3653SOL    HW213801   1.026   0.905   0.285 -0.0044  0.8938 -0.4603
 3653SOL     MW13802   1.095   0.853   0.292 -0.2615  0.6350  0.1993
 3654SOL     OW13803   1.659   2.499   2.595  0.4808  0.3838  0.4769
 3654SOL    HW113804   1.571   2.465   2.578  0.8947 -0.0951 -0.7707
 3654SOL    HW213805   1.716   2.423   2.584  1.4006  1.4025 -2.1556
 3654SOL     MW13806   1.655   2.485   2.591  0.6515  0.4525 -0.0200
 3655SOL     OW13807   3.541   0.616   1.357 -0.2285 -0.2379  0.6302
 3655SOL    HW113808   3.614   0.632   1.296 -0.5098 -1.1611  0.0359
 3655SOL    HW213809   3.506   0.703   1.376 -0.1994  0.0634 -0.6149
 3655SOL     MW13810   3.546   0.629   1.351 -0.2608 -0.3176  0.3947
 3656SOL     OW13811   5.035   1.832   2.034 -0.2645 -0.2620 -0.2560
 3656SOL    HW113812   5.072   1.836   2.122  0.0689 -0.6484 -0.3740
 3656SOL    HW213813   5.084   1.898   1.984  0.5925 -1.0865 -0.5259
 3656SOL     MW13814   5.046   1.841   2.038 -0.1121 -0.4170 -0.3057
 3657SOL     OW13815   5.646   5.733   1.997  0.0310  0.1901  0.1469
 3657SOL    HW113816   5.623   5.660   1.940  0.3984 -0.6697  1.1074
 3657SOL    HW213817   5.562   5.762   2.033 -0.1860  0.6416 -0.6939
 3657SOL     MW13818   5.632   5.728   1.994  0.0505  0.1373  0.1621
 3658SOL     OW13819   4.722   1.536   4.464  0.1311  0.2593 -0.4461
 3658SOL    HW113820   4.791   1.478   4.433 -0.0588 -0.7002  0.9129
 3658SOL    HW213821   4.701   1.591   4.388  3.0268  1.2387 -0.6046
 3658SOL     MW13822   4.728   1.536   4.450  0.4778  0.2617 -0.2923
 3659SOL     OW13823   2.701   5.710   4.980 -0.0143 -0.5468 -0.7126
 3659SOL    HW113824   2.670   5.768   5.049 -0.1891 -2.7799  1.1627
 3659SOL    HW213825   2.643   5.634   4.985  0.6015 -1.1689 -2.6831
 3659SOL     MW13826   2.690   5.708   4.990  0.0420 -0.9117 -0.7248
 3660SOL     OW13827   3.563   5.873   2.263 -0.0085 -0.1708 -0.2024
 3660SOL    HW113828   3.565   5.914   2.176 -1.8004  0.2132 -0.0849
 3660SOL    HW213829   3.520   5.938   2.319  1.6774 -0.1737  1.1218
 3660SOL     MW13830   3.557   5.886   2.259 -0.0222 -0.1216 -0.0179
 3661SOL     OW13831   1.915   3.852   3.540  0.7029 -0.2695  0.1658
 3661SOL    HW113832   2.000   3.896   3.543 -0.2597  1.6167  0.4869
 3661SOL    HW213833   1.860   3.902   3.601 -0.8914 -0.9022 -0.7255
 3661SOL     MW13834   1.919   3.864   3.548  0.3757 -0.1092  0.0927
 3662SOL     OW13835   1.739   0.403   3.559 -0.1038  0.3092 -0.4844
 3662SOL    HW113836   1.678   0.335   3.531 -0.9316  1.4740 -1.5409
 3662SOL    HW213837   1.761   0.380   3.649 -0.6220 -1.1704 -0.7206
 3662SOL     MW13838   1.734   0.391   3.567 -0.2761  0.2689 -0.6499
 3663SOL     OW13839   5.676   3.828   4.148  0.5103 -0.4987  0.6159
 3663SOL    HW113840   5.680   3.849   4.241  2.3073  0.2147  0.4012
 3663SOL    HW213841   5.613   3.891   4.112  2.3747  1.5181  0.7859
 3663SOL     MW13842   5.668   3.839   4.155  0.9789 -0.1493  0.6104
 3664SOL     OW13843   3.649   2.893   2.177  0.2684  0.0561 -0.4875
 3664SOL    HW113844   3.637   2.975   2.224  0.9397 -0.5277  0.7244
 3664SOL    HW213845   3.646   2.917   2.084 -1.3251  1.1775 -0.1607
 3664SOL     MW13846   3.647   2.906   2.171  0.1504  0.1249 -0.2904
 3665SOL     OW13847   3.026   0.910   3.842 -0.6166 -1.2836  0.4586
 3665SOL    HW113848   2.972   0.890   3.919 -2.1257  0.5659 -0.0665
 3665SOL    HW213849   3.024   1.006   3.836  0.4527 -1.3429 -1.2106
 3665SOL     MW13850   3.019   0.920   3.851 -0.6728 -1.0543  0.1776
 3666SOL     OW13851   5.259   1.330   5.152 -0.0401  0.1812 -0.0714
 3666SOL    HW113852   5.229   1.412   5.193 -0.5781  0.6939 -1.4423
 3666SOL    HW213853   5.323   1.359   5.086 -0.8222 -0.4258 -1.1082
 3666SOL     MW13854   5.263   1.344   5.149 -0.2089  0.1692 -0.3800
 3667SOL     OW13855   4.951   2.460   1.222 -0.0556  0.0403 -0.6536
 3667SOL    HW113856   4.957   2.378   1.173  0.8991  0.4578 -1.2575
 3667SOL    HW213857   5.026   2.456   1.282  0.0150  0.4769 -0.7129
 3667SOL     MW13858   4.962   2.449   1.223  0.0753  0.1493 -0.7385
 3668SOL     OW13859   4.663   4.753   5.401 -0.0344  0.4628  0.0037
 3668SOL    HW113860   4.678   4.734   5.493  1.4930  2.9214  0.3319
 3668SOL    HW213861   4.588   4.812   5.400 -2.3731 -2.4181 -0.6762
 3668SOL     MW13862   4.656   4.758   5.412 -0.1383  0.4086 -0.0415
 3669SOL     OW13863   5.785   1.212   4.546 -0.1809 -0.3956  0.1184
 3669SOL    HW113864   5.706   1.216   4.600 -0.9244 -2.5171 -0.7627
 3669SOL    HW213865   5.857   1.212   4.608 -0.9950 -1.7617  1.0983
 3669SOL     MW13866   5.784   1.212   4.561 -0.3805 -0.8421  0.1311
 3670SOL     OW13867   2.681   3.700   1.720 -0.1409 -0.0815  0.4405
 3670SOL    HW113868   2.634   3.711   1.637  0.7357 -0.2934 -0.0983
 3670SOL    HW213869   2.679   3.787   1.760 -0.1140  0.1557 -0.0644
 3670SOL     MW13870   2.675   3.713   1.714 -0.0250 -0.0784  0.3070
 3671SOL     OW13871   0.473   0.527   1.262  1.0014  0.7656 -0.0485
 3671SOL    HW113872   0.448   0.565   1.178 -0.2808 -0.8457 -0.4334
 3671SOL    HW213873   0.391   0.521   1.311  1.0350 -1.9417 -0.2236
 3671SOL     MW13874   0.459   0.531   1.257  0.8416  0.2128 -0.1202
 3672SOL     OW13875   2.707   3.073   3.569 -0.0318  0.1454  0.1235
 3672SOL    HW113876   2.649   3.040   3.501 -0.6699 -1.0162  1.2157
 3672SOL    HW213877   2.650   3.123   3.628  0.0484 -0.9971  1.1960
 3672SOL     MW13878   2.693   3.075   3.568 -0.1032 -0.1497  0.4005
 3673SOL     OW13879   5.393   4.205   4.957  0.1251 -0.0038  0.4593
 3673SOL    HW113880   5.437   4.290   4.956 -0.0955  0.1267  1.4989
 3673SOL    HW213881   5.462   4.143   4.982 -0.1483  0.1331  1.5894
 3673SOL     MW13882   5.407   4.208   4.960  0.0620  0.0305  0.7372
 3674SOL     OW13883   4.344   4.568   5.797  0.0820  0.7634  0.1209
 3674SOL    HW113884   4.347   4.642   5.737  0.4182 -1.1309 -2.2477
 3674SOL    HW213885   4.402   4.503   5.758  0.4756 -0.4465  2.6242
 3674SOL     MW13886   4.352   4.570   5.785  0.1750  0.3662  0.1383
 3675SOL     OW13887   4.190   2.953   3.247  0.6343  0.2877 -0.4699
 3675SOL    HW113888   4.210   3.045   3.228 -0.1234  0.9915  1.9380
 3675SOL    HW213889   4.275   2.914   3.268  0.9885  0.3795 -1.7185
 3675SOL     MW13890   4.203   2.960   3.248  0.5827  0.3896 -0.3214
 3676SOL     OW13891   4.518   0.805   1.335 -0.1590  0.3277 -0.7671
 3676SOL    HW113892   4.425   0.786   1.324 -0.1078  0.0403 -0.7082
 3676SOL    HW213893   4.560   0.719   1.334  0.1532  0.4827 -1.2380
 3676SOL     MW13894   4.512   0.792   1.334 -0.1121  0.3107 -0.8198
 3677SOL     OW13895   0.206   3.572   2.940 -0.6500 -0.5380  0.1728
 3677SOL    HW113896   0.124   3.539   2.978 -0.2707 -0.7885  0.7780
 3677SOL    HW213897   0.203   3.666   2.954 -0.5828 -0.6118  0.6951
 3677SOL     MW13898   0.195   3.580   2.947 -0.5929 -0.5794  0.3171
 3678SOL     OW13899   3.750   5.915   1.386 -0.0308 -0.1626  0.0748
 3678SOL    HW113900   3.746   5.915   1.290  1.3952  0.7078 -0.0050
 3678SOL    HW213901   3.839   5.944   1.406 -0.4553  0.0881  1.6663
 3678SOL     MW13902   3.761   5.919   1.376  0.0975 -0.0191  0.2683
 3679SOL     OW13903   0.530   3.116   2.062 -0.2755  0.6786  0.6219
 3679SOL    HW113904   0.591   3.157   2.124  0.3342 -0.0990  0.5420
 3679SOL    HW213905   0.536   3.171   1.983  1.0706  0.0444  0.2633
 3679SOL     MW13906   0.539   3.129   2.060 -0.0252  0.4976  0.5660
 3680SOL     OW13907   3.238   4.022   3.424 -0.2672 -0.8939  0.2476
 3680SOL    HW113908   3.298   4.096   3.421 -0.9462 -0.3723 -0.8754
 3680SOL    HW213909   3.161   4.056   3.470 -0.6918 -0.8030 -0.5167
 3680SOL     MW13910   3.236   4.036   3.430 -0.4084 -0.8159  0.0060
 3681SOL     OW13911   1.771   5.510   5.590 -0.9563  0.1449 -0.4816
 3681SOL    HW113912   1.801   5.526   5.500 -1.0779  0.8016 -0.4089
 3681SOL    HW213913   1.829   5.564   5.644 -0.3589 -0.8685 -0.0931
 3681SOL     MW13914   1.783   5.519   5.585 -0.8955  0.0997 -0.4225
 3682SOL     OW13915   4.193   0.299   4.150  0.2109 -0.6498  0.4458
 3682SOL    HW113916   4.108   0.281   4.191  0.3957  0.3439  1.2954
 3682SOL    HW213917   4.183   0.267   4.060 -1.8261  1.3787 -0.1106
 3682SOL     MW13918   4.181   0.293   4.144 -0.0262 -0.2629  0.4835
 3683SOL     OW13919   1.223   3.039   5.715 -0.7761 -0.0014  0.5505
 3683SOL    HW113920   1.211   3.009   5.805 -1.3078 -2.3082 -0.2670
 3683SOL    HW213921   1.312   3.014   5.693  0.6643  3.8257  1.6016
 3683SOL     MW13922   1.233   3.032   5.724 -0.6598  0.1931  0.5808
 3684SOL     OW13923   3.219   2.996   1.674  0.6683  0.0223  0.2746
 3684SOL    HW113924   3.140   3.040   1.707  0.7528 -1.6531  2.9139
 3684SOL    HW213925   3.273   2.984   1.752  2.5454 -0.8435 -1.1417
 3684SOL     MW13926   3.216   3.000   1.689  0.9193 -0.3030  0.4312
 3685SOL     OW13927   5.320   1.666   3.084 -0.0095 -0.6001  0.5749
 3685SOL    HW113928   5.264   1.591   3.063 -1.6684 -0.2378  3.5648
 3685SOL    HW213929   5.285   1.701   3.165  1.6584  2.5646  0.0105
 3685SOL     MW13930   5.309   1.661   3.092 -0.0091 -0.1485  0.8855
 3686SOL     OW13931   3.801   3.917   4.046 -0.2257 -0.3484  0.0746
 3686SOL    HW113932   3.737   3.946   4.111  0.7073  1.5415  0.1709
 3686SOL    HW213933   3.779   3.967   3.967  0.1251 -0.9030 -0.3785
 3686SOL     MW13934   3.790   3.927   4.044 -0.0615 -0.1774  0.0286
 3687SOL     OW13935   0.951   5.915   2.095 -0.0098 -0.0040 -0.2427
 3687SOL    HW113936   0.874   5.893   2.042  0.5334  0.9668 -1.4641
 3687SOL    HW213937   0.918   5.977   2.160 -0.0599  1.4133 -1.5552
 3687SOL     MW13938   0.937   5.920   2.096  0.0532  0.3009 -0.5670
 3688SOL     OW13939   0.494   0.590   2.432  0.0410  0.1899  0.1508
 3688SOL    HW113940   0.570   0.589   2.375  0.7074  1.1058  0.9952
 3688SOL    HW213941   0.437   0.657   2.394 -0.3883 -0.5554 -0.5298
 3688SOL     MW13942   0.496   0.599   2.420  0.0714  0.2118  0.1717
 3689SOL     OW13943   0.648   4.521   3.943 -0.2251  0.1603 -0.0493
 3689SOL    HW113944   0.595   4.481   4.011 -1.2011  0.2827 -0.7233
 3689SOL    HW213945   0.651   4.614   3.966 -0.0217  0.0962  0.1768
 3689SOL     MW13946   0.642   4.528   3.954 -0.3240  0.1678 -0.1068
 3690SOL     OW13947   0.522   4.238   5.408 -0.3692 -0.6645 -0.2408
 3690SOL    HW113948   0.592   4.291   5.448 -3.2312  2.1172  1.3400
 3690SOL    HW213949   0.514   4.272   5.319  1.6916 -2.4891 -1.1702
 3690SOL     MW13950   0.530   4.249   5.402 -0.4718 -0.5417 -0.1578
 3691SOL     OW13951   2.985   1.132   5.369  0.1439  0.2109 -0.1143
 3691SOL    HW113952   2.894   1.133   5.340 -0.8821  0.5321  2.9391
 3691SOL    HW213953   2.986   1.189   5.446  3.3700  1.8498 -1.2731
 3691SOL     MW13954   2.973   1.140   5.375  0.4256  0.4618  0.1287
 3692SOL     OW13955   2.712   3.030   1.390 -0.1195  0.0885  0.4261
 3692SOL    HW113956   2.619   3.022   1.413 -0.4960  0.9728 -0.6819
 3692SOL    HW213957   2.711   3.057   1.298  1.3523 -6.1005 -1.6362
 3692SOL     MW13958   2.700   3.033   1.381  0.0207 -0.5906  0.0203
 3693SOL     OW13959   1.686   2.649   0.339 -0.7289  0.2928 -0.1426
 3693SOL    HW113960   1.761   2.614   0.388 -0.5570  1.3055  0.3404
 3693SOL    HW213961   1.634   2.695   0.405 -1.5081  0.0293 -0.5726
 3693SOL     MW13962   1.689   2.651   0.354 -0.8066  0.3886 -0.1358
 3694SOL     OW13963   5.015   0.467   1.281 -0.3478  0.4819 -0.3968
 3694SOL    HW113964   5.028   0.387   1.331 -0.2940 -0.1695 -1.4456
 3694SOL    HW213965   4.951   0.517   1.332  2.6718  1.6594  2.4446
 3694SOL     MW13966   5.008   0.463   1.294  0.0458  0.5492 -0.1674
 3695SOL     OW13967   5.899   3.053   4.281 -0.2866 -0.5832 -0.4184
 3695SOL    HW113968   5.955   2.998   4.336 -0.5030 -1.0320 -0.6438
 3695SOL    HW213969   5.862   2.993   4.217  0.2908  0.0095 -1.3235
 3695SOL     MW13970   5.901   3.038   4.280 -0.2403 -0.5648 -0.5627
 3696SOL     OW13971   5.366   0.998   1.263 -0.1115  0.1869  0.1773
 3696SOL    HW113972   5.329   1.034   1.343 -0.1180 -1.0649  0.7478
 3696SOL    HW213973   5.333   0.908   1.260  1.3784 -0.3543 -0.2727
 3696SOL     MW13974   5.357   0.991   1.273  0.0787 -0.0427  0.1928
 3697SOL     OW13975   1.334   0.976   3.195  0.0625  0.0948  0.3914
 3697SOL    HW113976   1.364   1.056   3.239  1.1878 -0.7255  1.1526
 3697SOL    HW213977   1.241   0.990   3.181  0.5558  2.2394 -0.9837
 3697SOL     MW13978   1.326   0.988   3.199  0.2697  0.2643  0.3128
 3698SOL     OW13979   1.148   4.604   0.386 -0.7897  0.0865  0.3086
 3698SOL    HW113980   1.104   4.526   0.353  0.2165 -0.2206 -0.3157
 3698SOL    HW213981   1.125   4.673   0.323  1.1974 -0.5175 -1.1283
 3698SOL     MW13982   1.139   4.603   0.374 -0.4064 -0.0300  0.0447
 3699SOL     OW13983   3.670   0.045   3.334 -0.4794 -0.4059 -0.3184
 3699SOL    HW113984   3.721   0.096   3.399 -1.5567 -1.2168  1.1900
 3699SOL    HW213985   3.630   0.112   3.279  2.7874  0.2571 -2.0296
 3699SOL     MW13986   3.672   0.060   3.336 -0.1991 -0.4248 -0.3445
 3700SOL     OW13987   5.049   1.461   5.612 -0.1118  0.0297  0.6783
 3700SOL    HW113988   5.127   1.516   5.626  0.5831 -1.0669  1.1347
 3700SOL    HW213989   5.014   1.492   5.529  0.1387  1.3369  1.0371
 3700SOL     MW13990   5.055   1.472   5.603  0.0095  0.0566  0.7820
 3701SOL     OW13991   3.193   0.247   1.555  0.3655 -0.1478 -0.7136
 3701SOL    HW113992   3.133   0.320   1.539 -0.2658 -0.4530  0.1794
 3701SOL    HW213993   3.223   0.260   1.645 -0.4933 -1.5025 -0.2157
 3701SOL     MW13994   3.189   0.258   1.565  0.1745 -0.3603 -0.5355
 3702SOL     OW13995   0.316   4.033   5.120 -0.0025  0.1753 -0.2322
 3702SOL    HW113996   0.308   4.107   5.060 -2.0955 -0.0647 -0.2965
 3702SOL    HW213997   0.295   3.957   5.065  0.9528 -0.3529  0.1215
 3702SOL     MW13998   0.312   4.032   5.105 -0.1481  0.0772 -0.1955
 3703SOL     OW13999   5.513   5.037   0.538 -0.0922 -0.0068 -0.4355
 3703SOL    HW114000   5.453   5.108   0.514 -0.2116 -0.2456 -0.8483
 3703SOL    HW214001   5.597   5.062   0.499  0.0603  0.2834  0.0662
 3703SOL     MW14002   5.516   5.049   0.530 -0.0877 -0.0005 -0.4241
 3704SOL     OW14003   2.458   3.414   3.632  0.2329 -0.0707 -0.1907
 3704SOL    HW114004   2.508   3.390   3.554  0.5467  1.0631 -0.3526
 3704SOL    HW214005   2.420   3.499   3.610 -2.2446 -1.1554 -0.2858
 3704SOL     MW14006   2.459   3.422   3.619 -0.0441 -0.0644 -0.2236
 3705SOL     OW14007   1.448   3.380   5.444 -0.3308 -0.1182 -0.3570
 3705SOL    HW114008   1.454   3.368   5.538 -0.0544  0.4478 -0.3029
 3705SOL    HW214009   1.357   3.408   5.429 -0.5215 -0.7151 -0.3145
 3705SOL     MW14010   1.437   3.382   5.454 -0.3198 -0.1221 -0.3443
 3706SOL     OW14011   4.173   4.196   3.262 -0.1649 -0.3277 -0.7277
 3706SOL    HW114012   4.268   4.186   3.251 -0.2370 -1.0620 -0.7033
 3706SOL    HW214013   4.159   4.189   3.356 -0.4078 -1.6754 -0.8636
 3706SOL     MW14014   4.184   4.194   3.273 -0.2050 -0.5941 -0.7420
 3707SOL     OW14015   1.937   3.474   2.273  0.4949 -0.3138 -0.5828
 3707SOL    HW114016   1.952   3.380   2.281  1.8206 -0.0822 -0.2332
 3707SOL    HW214017   1.967   3.510   2.356 -2.6436  0.1248  0.4190
 3707SOL     MW14018   1.943   3.467   2.285  0.2627 -0.2279 -0.4098
 3708SOL     OW14019   4.510   1.999   1.726  0.4075  0.7421 -0.1041
 3708SOL    HW114020   4.571   2.058   1.684 -1.2339  2.8423  0.3438
 3708SOL    HW214021   4.482   2.045   1.805 -1.2398 -0.4437  0.0463
 3708SOL     MW14022   4.514   2.012   1.731 -0.0134  0.8593 -0.0274
 3709SOL     OW14023   0.245   2.037   4.333 -0.2829  0.3517  0.5708
 3709SOL    HW114024   0.261   2.040   4.428 -0.8061  0.8098  0.6499
 3709SOL    HW214025   0.330   2.061   4.294  0.0419 -0.2354  0.9132
 3709SOL     MW14026   0.258   2.041   4.340 -0.3083  0.3352  0.6247
 3710SOL     OW14027   1.798   4.467   2.825 -0.0391  0.0137  0.3955
 3710SOL    HW114028   1.719   4.460   2.880 -0.1038 -1.5077  0.1317
 3710SOL    HW214029   1.812   4.561   2.816 -0.5256  0.3080  2.3204
 3710SOL     MW14030   1.790   4.479   2.831 -0.1097 -0.1431  0.6080
 3711SOL     OW14031   2.761   2.626   0.270 -0.2919  0.0342  0.6368
 3711SOL    HW114032   2.697   2.676   0.219  0.1373 -0.3603 -0.3170
 3711SOL    HW214033   2.809   2.691   0.321 -1.0671  0.3861  0.9162
 3711SOL     MW14034   2.759   2.641   0.270 -0.3362  0.0288  0.5505
 3712SOL     OW14035   2.273   2.787   4.800  0.6673  0.2805 -0.0111
 3712SOL    HW114036   2.280   2.808   4.707  1.9114  1.1989  0.2831
 3712SOL    HW214037   2.363   2.791   4.833  0.1113  1.0284  1.4611
 3712SOL     MW14038   2.285   2.790   4.792  0.7555  0.4940  0.2151
 3713SOL     OW14039   3.259   0.443   2.623 -0.2211  0.0421 -0.5634
 3713SOL    HW114040   3.297   0.529   2.602  0.9279 -0.5912 -1.0834
 3713SOL    HW214041   3.165   0.461   2.633 -0.0838  1.2501 -1.2888
 3713SOL     MW14042   3.252   0.457   2.622 -0.0563  0.1156 -0.7229
 3714SOL     OW14043   1.962   4.391   0.938  0.6142  0.3338 -0.1511
 3714SOL    HW114044   1.914   4.331   0.995 -2.2788  2.0186 -0.7405
 3714SOL    HW214045   1.986   4.339   0.862  2.3392 -1.2861  1.4556
 3714SOL     MW14046   1.959   4.377   0.936  0.4647  0.3419 -0.0209
 3715SOL     OW14047   5.371   3.820   2.796 -0.0619  0.5052 -0.7180
 3715SOL    HW114048   5.368   3.764   2.717 -1.9674  0.7653 -0.8498
 3715SOL    HW214049   5.426   3.771   2.857  1.7178  0.4403 -2.2978
 3715SOL     MW14050   5.378   3.806   2.793 -0.0777  0.5300 -0.9372
 3716SOL     OW14051   5.922   2.087   3.759  0.1960 -0.3151  0.1568
 3716SOL    HW114052   5.911   2.040   3.841 -1.9110  0.7632  0.5205
 3716SOL    HW214053   5.968   2.167   3.782 -0.1947 -0.1173  0.2450
 3716SOL     MW14054   5.927   2.091   3.772 -0.1235 -0.1516  0.2148
 3717SOL     OW14055   4.819   1.464   3.522 -0.0595 -0.4695 -0.0077
 3717SOL    HW114056   4.914   1.466   3.512  0.1408  2.1797  1.7768
 3717SOL    HW214057   4.785   1.505   3.443  0.2472 -1.6285 -0.7533
 3717SOL     MW14058   4.826   1.470   3.511  0.0062 -0.2786  0.1252
 3718SOL     OW14059   3.121   2.662   3.177  0.4386 -0.0215 -0.4619
 3718SOL    HW114060   3.136   2.648   3.084 -1.4583  0.2104 -0.8191
 3718SOL    HW214061   3.124   2.574   3.216 -0.3237 -0.2774 -0.9807
 3718SOL     MW14062   3.123   2.649   3.170  0.0980 -0.0243 -0.5741
 3719SOL     OW14063   2.911   1.318   4.023 -0.1842 -0.0801 -0.3088
 3719SOL    HW114064   2.988   1.307   4.078 -1.3355 -2.9090  0.8279
 3719SOL    HW214065   2.865   1.393   4.060  0.3620 -0.3711  0.9789
 3719SOL     MW14066   2.915   1.326   4.034 -0.2618 -0.4795  0.0014
 3720SOL     OW14067   0.843   0.848   1.143  0.2965  0.7603 -0.0595
 3720SOL    HW114068   0.834   0.940   1.117  1.2256  0.9472  0.2348
 3720SOL    HW214069   0.932   0.842   1.178  0.7650 -0.5949 -1.4244
 3720SOL     MW14070   0.853   0.859   1.144  0.4753  0.6108 -0.1967
 3721SOL     OW14071   4.766   5.072   3.785 -0.6926 -0.1623 -0.6565
 3721SOL    HW114072   4.751   5.057   3.878 -2.7642 -0.5617 -1.0313
 3721SOL    HW214073   4.801   4.989   3.752  0.2418  0.0459 -0.2222
 3721SOL     MW14074   4.769   5.059   3.793 -0.8383 -0.1864 -0.6485
 3722SOL     OW14075   0.093   2.317   3.393  0.2136 -0.5751 -0.3454
 3722SOL    HW114076   0.162   2.339   3.455  1.2805 -0.6328 -1.4717
 3722SOL    HW214077   0.075   2.399   3.347 -1.1922 -0.3293  0.6346
 3722SOL     MW14078   0.100   2.330   3.395  0.1702 -0.5510 -0.3641
 3723SOL     OW14079   5.226   1.994   1.030 -0.4016 -0.3534  0.0070
 3723SOL    HW114080   5.246   1.915   1.080 -2.3227 -0.7291  0.2474
 3723SOL    HW214081   5.143   1.974   0.987 -0.0236  0.8950 -1.3280
 3723SOL     MW14082   5.218   1.981   1.031 -0.5989 -0.2416 -0.1332
 3724SOL     OW14083   4.371   5.447   5.214 -0.5455 -0.4644  0.5768
 3724SOL    HW114084   4.396   5.539   5.202  0.5152 -0.3836  3.0270
 3724SOL    HW214085   4.430   5.416   5.283 -1.8579 -2.5918  0.7627
 3724SOL     MW14086   4.382   5.455   5.221 -0.5774 -0.7262  0.9141
 3725SOL     OW14087   4.176   5.344   4.590 -0.3103 -0.1582 -0.2710
 3725SOL    HW114088   4.123   5.391   4.654 -0.1790  0.4747 -0.6288
 3725SOL    HW214089   4.239   5.408   4.558  0.4563 -0.8181 -0.0977
 3725SOL     MW14090   4.177   5.358   4.594 -0.1955 -0.1621 -0.2952
 3726SOL     OW14091   3.479   3.492   1.186  0.5833  0.0112 -0.1066
 3726SOL    HW114092   3.436   3.443   1.116  2.9019 -1.6604 -0.4009
 3726SOL    HW214093   3.523   3.426   1.239 -0.3398  1.3521  2.4032
 3726SOL     MW14094   3.479   3.478   1.184  0.7620 -0.0312  0.1770
 3727SOL     OW14095   0.944   0.241   0.229 -0.4470  0.3811 -0.0061
 3727SOL    HW114096   0.938   0.147   0.243 -1.4912  0.9857  4.5494
 3727SOL    HW214097   1.027   0.266   0.270  0.2507  1.3577 -1.9615
 3727SOL     MW14098   0.953   0.232   0.236 -0.4913  0.5836  0.3268
 3728SOL     OW14099   1.555   5.023   1.549  0.7195 -0.7095 -0.4429
 3728SOL    HW114100   1.514   5.104   1.579 -0.6141 -1.4828 -0.1452
 3728SOL    HW214101   1.535   4.960   1.618 -0.1739 -1.8639 -1.7452
 3728SOL     MW14102   1.547   5.025   1.562  0.4344 -0.9561 -0.5715
 3729SOL     OW14103   3.444   2.190   4.512 -0.1077 -0.4181 -0.9659
 3729SOL    HW114104   3.529   2.233   4.500 -1.0529  1.8016 -0.0400
 3729SOL    HW214105   3.390   2.224   4.440 -1.4547  1.5577  0.9233
 3729SOL     MW14106   3.448   2.200   4.501 -0.4010  0.1192 -0.6061
 3730SOL     OW14107   2.153   3.884   2.150  0.6397  0.1787 -0.0457
 3730SOL    HW114108   2.166   3.979   2.147 -0.1964  0.4695  3.6622
 3730SOL    HW214109   2.065   3.871   2.115  1.1021  0.6296 -1.4365
 3730SOL     MW14110   2.143   3.895   2.145  0.5918  0.2735  0.2508
 3731SOL     OW14111   5.856   4.039   5.458  1.0905 -0.2387  0.3248
 3731SOL    HW114112   5.813   3.975   5.515 -0.6934  0.5237 -0.1416
 3731SOL    HW214113   5.843   4.123   5.501 -1.6688  0.5749 -1.9193
 3731SOL     MW14114   5.849   4.041   5.471  0.5088 -0.0367 -0.0219
 3732SOL     OW14115   2.093   1.521   4.760  0.5142 -0.1127 -0.1243
 3732SOL    HW114116   2.122   1.447   4.814  0.5843  0.3928  0.5452
 3732SOL    HW214117   2.173   1.557   4.723  0.8054  1.4560  1.9496
 3732SOL     MW14118   2.107   1.516   4.762  0.5603  0.1528  0.2270
 3733SOL     OW14119   4.579   5.013   0.989 -0.1055  0.1403  0.1133
 3733SOL    HW114120   4.505   5.057   1.031 -0.9158 -0.2496 -0.8958
 3733SOL    HW214121   4.629   5.083   0.949 -1.6359  0.1379 -1.8737
 3733SOL     MW14122   4.576   5.028   0.989 -0.4048  0.0901 -0.2702
 3734SOL     OW14123   4.753   0.582   0.738 -0.1493 -0.0065  0.2976
 3734SOL    HW114124   4.728   0.670   0.710  0.2527  0.0536  0.1323
 3734SOL    HW214125   4.690   0.561   0.807  0.3179  0.7648  0.9660
 3734SOL     MW14126   4.742   0.591   0.743 -0.0381  0.0999  0.3619
 3735SOL     OW14127   1.925   5.424   2.844 -0.1586 -0.1931  0.2979
 3735SOL    HW114128   1.859   5.374   2.796  0.4451  0.2178 -0.9798
 3735SOL    HW214129   2.003   5.421   2.788 -0.4037  3.0314 -0.2909
 3735SOL     MW14130   1.927   5.417   2.831 -0.1127  0.2718  0.0589
 3736SOL     OW14131   2.139   5.483   4.061  0.6072 -0.4648 -0.2031
 3736SOL    HW114132   2.170   5.431   3.987 -1.3686 -0.6291 -0.9336
 3736SOL    HW214133   2.052   5.514   4.035  0.2022  0.1206  1.7269
 3736SOL     MW14134   2.132   5.480   4.048  0.3026 -0.4106 -0.0496
 3737SOL     OW14135   1.317   4.073   3.063  0.4102  0.5112  0.3377
 3737SOL    HW114136   1.375   4.125   3.118  0.1705  1.1510 -0.0129
 3737SOL    HW214137   1.341   3.982   3.082 -0.4091  0.6841  2.3376
 3737SOL     MW14138   1.327   4.068   3.073  0.2745  0.6156  0.5491
 3738SOL     OW14139   4.080   1.157   2.047  0.0899  0.1219 -0.6134
 3738SOL    HW114140   4.072   1.141   1.953  2.1447  0.3415 -0.8374
 3738SOL    HW214141   4.108   1.248   2.054  0.1293  0.0513  0.2196
 3738SOL     MW14142   4.082   1.167   2.036  0.3581  0.1410 -0.5355
 3739SOL     OW14143   2.083   4.981   4.457 -0.2376  0.5809 -0.1103
 3739SOL    HW114144   2.084   4.886   4.474 -0.4670  0.4084 -1.0224
 3739SOL    HW214145   2.162   5.014   4.500 -0.8725  0.1945  1.4156
 3739SOL     MW14146   2.093   4.973   4.465 -0.3483  0.5093 -0.0319
 3740SOL     OW14147   4.122   4.465   4.036 -0.5869  0.4731 -0.1437
 3740SOL    HW114148   4.146   4.509   3.954 -0.8543  0.8495 -0.0225
 3740SOL    HW214149   4.205   4.443   4.077 -0.4507 -0.2181 -0.7819
 3740SOL     MW14150   4.135   4.468   4.031 -0.6042  0.4330 -0.2098
 3741SOL     OW14151   4.152   2.233   3.266 -0.0899 -0.3568  1.0487
 3741SOL    HW114152   4.087   2.204   3.330 -0.1184 -0.2957  1.0463
 3741SOL    HW214153   4.137   2.176   3.190  0.1080 -0.5939  1.1853
 3741SOL     MW14154   4.142   2.222   3.265 -0.0682 -0.3793  1.0655
 3742SOL     OW14155   4.622   2.858   4.177  0.8119  0.3758 -0.0219
 3742SOL    HW114156   4.536   2.832   4.145  0.7014 -0.6205  1.0322
 3742SOL    HW214157   4.641   2.941   4.132 -2.5276  2.7984  2.7631
 3742SOL     MW14158   4.614   2.865   4.167  0.3700  0.5584  0.4702
 3743SOL     OW14159   0.022   4.682   0.864  0.3754  0.4497 -0.4503
 3743SOL    HW114160  -0.016   4.770   0.870  1.7458  1.0194  0.2127
 3743SOL    HW214161   0.059   4.678   0.776 -0.5308  0.1797 -0.8211
 3743SOL     MW14162   0.022   4.693   0.853  0.4348  0.4883 -0.4129
 3744SOL     OW14163   1.516   4.382   3.933 -0.1089 -0.3657  0.1203
 3744SOL    HW114164   1.440   4.404   3.879 -1.3125 -0.7531  1.6069
 3744SOL    HW214165   1.523   4.287   3.926  0.2374 -0.3293 -0.0150
 3744SOL     MW14166   1.507   4.373   3.925 -0.2186 -0.4106  0.2935
 3745SOL     OW14167   5.954   4.807   0.389  0.1218 -0.2526 -0.1996
 3745SOL    HW114168   5.874   4.756   0.375  0.4133 -1.8417  3.3009
 3745SOL    HW214169   5.933   4.866   0.461  1.7609  0.0279  0.0777
 3745SOL     MW14170   5.941   4.808   0.396  0.3691 -0.4196  0.2840
 3746SOL     OW14171   2.701   1.182   3.528 -0.3149  0.5133  0.0143
 3746SOL    HW114172   2.781   1.213   3.569 -0.1268  0.2111 -0.1237
 3746SOL    HW214173   2.659   1.260   3.493  1.2204  0.3620 -2.2471
 3746SOL     MW14174   2.706   1.196   3.529 -0.0942  0.4554 -0.2928
 3747SOL     OW14175   4.660   4.259   0.153 -0.2328 -0.1708  0.5312
 3747SOL    HW114176   4.685   4.167   0.140  0.9167  0.2638 -0.4246
 3747SOL    HW214177   4.610   4.282   0.075 -0.1371  0.1439  0.5609
 3747SOL     MW14178   4.657   4.250   0.142 -0.0734 -0.0749  0.4126
 3748SOL     OW14179   1.715   5.885   1.918  0.3755  0.3755 -0.0827
 3748SOL    HW114180   1.676   5.826   1.854  1.7412 -1.9911  1.2073
 3748SOL    HW214181   1.789   5.925   1.872 -0.7989  1.4094 -1.0883
 3748SOL     MW14182   1.720   5.883   1.904  0.3999  0.2050 -0.0464
 3749SOL     OW14183   0.998   0.070   4.902  0.3376 -0.1311 -0.2224
 3749SOL    HW114184   0.971   0.074   4.811  0.7686 -0.0025 -0.3443
 3749SOL    HW214185   1.009   0.162   4.928  1.8645 -0.2084 -0.5376
 3749SOL     MW14186   0.996   0.083   4.894  0.5883 -0.1245 -0.2780
 3750SOL     OW14187   1.754   0.991   4.606 -0.3407  0.3927 -0.1017
 3750SOL    HW114188   1.726   0.915   4.656  1.8697  0.3002  1.0413
 3750SOL    HW214189   1.689   1.059   4.627 -0.1434 -0.0248  1.9095
 3750SOL     MW14190   1.742   0.990   4.615 -0.0325  0.3275  0.3018
 3751SOL     OW14191   3.282   4.930   5.150 -0.1995  0.6263  0.4051
 3751SOL    HW114192   3.246   4.895   5.069  0.6589  0.7992 -0.0535
 3751SOL    HW214193   3.241   5.017   5.158  1.4591  1.5803 -1.0591
 3751SOL     MW14194   3.272   4.937   5.141  0.1230  0.7701  0.1588
 3752SOL     OW14195   5.720   4.978   1.263 -0.0723 -0.2514 -0.0599
 3752SOL    HW114196   5.670   4.910   1.307  0.1865 -0.5396 -0.2144
 3752SOL    HW214197   5.659   5.052   1.256 -0.4544 -0.5832 -0.2023
 3752SOL     MW14198   5.706   4.979   1.268 -0.0882 -0.3309 -0.0979
 3753SOL     OW14199   0.649   5.393   1.647 -0.1192  0.2131 -0.3033
 3753SOL    HW114200   0.650   5.379   1.553  0.5057 -0.8143 -0.1516
 3753SOL    HW214201   0.730   5.442   1.665  1.5024 -2.4775  0.0982
 3753SOL     MW14202   0.660   5.397   1.638  0.1684 -0.2627 -0.2326
 3754SOL     OW14203   0.100   3.746   0.843 -0.3574 -0.4456 -0.3621
 3754SOL    HW114204   0.151   3.803   0.900  0.7895 -1.3511 -0.4655
 3754SOL    HW214205   0.164   3.705   0.785 -1.1671 -1.7562 -0.3646
 3754SOL     MW14206   0.115   3.748   0.842 -0.3142 -0.7293 -0.3756
 3755SOL     OW14207   5.240   1.650   5.630 -0.3354 -0.1876 -0.2976
 3755SOL    HW114208   5.184   1.711   5.583  0.4418  0.5056 -0.3371
 3755SOL    HW214209   5.315   1.702   5.657 -0.1782 -0.8778  0.6173
 3755SOL     MW14210   5.242   1.664   5.627 -0.2160 -0.1872 -0.1855
 3756SOL     OW14211   3.652   2.491   1.560 -0.3747 -0.0937 -0.2794
 3756SOL    HW114212   3.700   2.442   1.627  0.8322 -1.2274 -1.9187
 3756SOL    HW214213   3.581   2.534   1.607  0.8486 -0.3148  1.8298
 3756SOL     MW14214   3.649   2.490   1.574 -0.0637 -0.2670 -0.2192
 3757SOL     OW14215   0.200   3.673   4.503  0.0913  0.1681 -0.3443
 3757SOL    HW114216   0.161   3.751   4.544  1.3482  1.3776 -1.3869
 3757SOL    HW214217   0.173   3.600   4.559 -0.1218  1.5034  1.3379
 3757SOL     MW14218   0.192   3.674   4.515  0.2249  0.4938 -0.2623
 3758SOL     OW14219   5.400   3.002   4.913 -0.2099 -0.4566 -0.0360
 3758SOL    HW114220   5.480   3.030   4.958 -0.7043  0.7416  0.1200
 3758SOL    HW214221   5.429   2.933   4.853  1.0424  0.3589 -0.3841
 3758SOL     MW14222   5.414   2.997   4.911 -0.1125 -0.1988 -0.0606
 3759SOL     OW14223   1.301   4.609   4.436 -0.2074  0.3887 -0.3240
 3759SOL    HW114224   1.359   4.684   4.419 -2.5099  2.2795 -0.0045
 3759SOL    HW214225   1.360   4.533   4.435  1.7904  1.8675 -3.3449
 3759SOL     MW14226   1.316   4.609   4.434 -0.2464  0.8202 -0.6700
 3760SOL     OW14227   1.026   4.455   4.662  0.5670  0.0336  0.2287
 3760SOL    HW114228   1.000   4.379   4.714  0.0123 -0.1370 -0.2851
 3760SOL    HW214229   1.101   4.491   4.708  0.8903 -0.8779  0.4368
 3760SOL     MW14230   1.032   4.450   4.675  0.5374 -0.1040  0.1893
 3761SOL     OW14231   1.273   1.788   1.555 -0.5951  0.0953 -0.4405
 3761SOL    HW114232   1.304   1.713   1.504 -1.1929  1.2530 -2.5932
 3761SOL    HW214233   1.331   1.860   1.531 -2.1446  1.1737 -1.0885
 3761SOL     MW14234   1.284   1.788   1.545 -0.8700  0.3816 -0.7991
 3762SOL     OW14235   4.272   2.586   4.200  0.0340  0.2558  0.1133
 3762SOL    HW114236   4.303   2.675   4.183 -1.0437  0.9157  1.4531
 3762SOL    HW214237   4.330   2.554   4.270  1.4696 -0.7173 -1.4918
 3762SOL     MW14238   4.284   2.593   4.207  0.0796  0.2158  0.0792
 3763SOL     OW14239   4.117   3.114   1.413 -0.3545  0.2412  0.7487
 3763SOL    HW114240   4.048   3.172   1.379  0.9159  1.4232  0.1437
 3763SOL    HW214241   4.192   3.172   1.427  1.1273 -1.3708 -0.4182
 3763SOL     MW14242   4.118   3.129   1.411 -0.0019  0.1860  0.5219
 3764SOL     OW14243   3.966   0.024   4.138  0.0361 -0.9061  0.9320
 3764SOL    HW114244   3.946   0.034   4.044  1.9535 -1.4168  0.4428
 3764SOL    HW214245   3.885  -0.008   4.177 -0.8892 -0.3629 -0.5012
 3764SOL     MW14246   3.953   0.022   4.131  0.1631 -0.9019  0.6852
 3765SOL     OW14247   2.618   4.538   4.380  0.7775 -0.3829  0.3848
 3765SOL    HW114248   2.670   4.570   4.306 -0.0629  0.7522  0.2627
 3765SOL    HW214249   2.566   4.614   4.407  0.4694 -1.0167  1.6143
 3765SOL     MW14250   2.618   4.552   4.374  0.6304 -0.3195  0.5264
 3766SOL     OW14251   2.966   1.062   1.668  0.1143  0.0053  0.0433
 3766SOL    HW114252   2.875   1.055   1.696 -0.2708  0.7758 -0.9648
 3766SOL    HW214253   3.012   0.995   1.718 -0.6647  0.8188  1.9289
 3766SOL     MW14254   2.961   1.053   1.678 -0.0346  0.2081  0.1557
 3767SOL     OW14255   3.576   3.084   3.515  0.0128  0.0634  0.0102
 3767SOL    HW114256   3.670   3.085   3.533  0.3886 -0.5646 -1.7982
 3767SOL    HW214257   3.551   2.992   3.520 -0.7992  0.3589  1.8101
 3767SOL     MW14258   3.585   3.072   3.518 -0.0432  0.0210  0.0091
 3768SOL     OW14259   2.660   3.390   1.133  0.1661  0.5048 -0.2665
 3768SOL    HW114260   2.614   3.438   1.202 -0.7020  0.9345 -1.1338
 3768SOL    HW214261   2.608   3.406   1.054  0.6349 -0.7499 -0.8373
 3768SOL     MW14262   2.647   3.398   1.132  0.1149  0.3994 -0.4506
 3769SOL     OW14263   2.290   1.634   2.126 -0.4537  0.4188  0.1244
 3769SOL    HW114264   2.224   1.584   2.175 -1.2070  0.4648 -0.8423
 3769SOL    HW214265   2.242   1.676   2.056  0.5501  0.7433 -0.3816
 3769SOL     MW14266   2.276   1.633   2.123 -0.4215  0.4662 -0.0641
 3770SOL     OW14267   2.983   2.545   2.289  0.4941 -0.0553 -0.1956
 3770SOL    HW114268   2.976   2.572   2.380 -0.9787  0.2845 -0.3904
 3770SOL    HW214269   2.973   2.450   2.291  3.2742 -0.3587  0.2580
 3770SOL     MW14270   2.981   2.536   2.301  0.6614 -0.0508 -0.1626
 3771SOL     OW14271   1.995   3.332   4.976 -0.0593  0.3103 -0.0834
 3771SOL    HW114272   1.942   3.272   5.028 -0.0341 -0.1079 -0.5464
 3771SOL    HW214273   2.079   3.288   4.967 -0.5151 -0.2637 -1.6885
 3771SOL     MW14274   1.999   3.319   4.982 -0.1144  0.1831 -0.3481
 3772SOL     OW14275   2.481   4.801   4.440 -0.1201 -0.1189 -0.5304
 3772SOL    HW114276   2.570   4.832   4.422 -0.3720 -0.1410 -1.8131
 3772SOL    HW214277   2.424   4.861   4.391 -0.7963 -0.3820 -0.0765
 3772SOL     MW14278   2.485   4.813   4.432 -0.2391 -0.1550 -0.6366
 3773SOL     OW14279   5.216   2.248   3.874  0.5730  0.1606  0.0059
 3773SOL    HW114280   5.210   2.190   3.950  2.8740  0.1723  0.2194
 3773SOL    HW214281   5.126   2.256   3.844 -0.2251 -0.7925  2.0189
 3773SOL     MW14282   5.204   2.241   3.880  0.7658  0.0401  0.2911
 3774SOL     OW14283   2.897   5.598   1.751  0.0235  0.2754 -0.2117
 3774SOL    HW114284   2.953   5.521   1.744 -0.6810 -0.1743 -1.0344
 3774SOL    HW214285   2.929   5.644   1.829 -0.6406 -1.7194  1.2741
 3774SOL     MW14286   2.909   5.594   1.760 -0.1516 -0.0367 -0.1267
 3775SOL     OW14287   3.023   2.813   1.881  0.5292  0.2001 -0.6555
 3775SOL    HW114288   2.937   2.770   1.875  0.6781 -0.3859  1.0076
 3775SOL    HW214289   3.003   2.906   1.887  0.0006  0.0684 -0.3502
 3775SOL     MW14290   3.009   2.820   1.881  0.4804  0.1082 -0.4036
 3776SOL     OW14291   2.215   2.392   0.707  0.3367 -0.2967 -0.2655
 3776SOL    HW114292   2.302   2.431   0.715  1.3623 -2.4731 -0.5441
 3776SOL    HW214293   2.178   2.431   0.628  0.5028  1.6282  0.5694
 3776SOL     MW14294   2.221   2.402   0.698  0.4890 -0.3290 -0.1943
 3777SOL     OW14295   5.960   3.650   4.383 -0.1384 -0.1986  0.3760
 3777SOL    HW114296   5.961   3.633   4.289  0.7262 -0.4717  0.4286
 3777SOL    HW214297   6.051   3.673   4.404 -0.4093  0.2692  1.0713
 3777SOL     MW14298   5.972   3.651   4.374 -0.0625 -0.1736  0.4721
 3778SOL     OW14299   2.863   1.239   2.434 -0.3506  0.3438  0.3723
 3778SOL    HW114300   2.896   1.163   2.481  0.8555  0.6816  0.0932
 3778SOL    HW214301   2.878   1.312   2.494  0.8354  0.7202 -0.3572
 3778SOL     MW14302   2.870   1.239   2.448 -0.0443  0.4351  0.2432
 3779SOL     OW14303   0.941   3.380   4.413  0.7335 -0.5983 -0.9622
 3779SOL    HW114304   0.980   3.414   4.494  1.9274 -0.5249 -1.5582
 3779SOL    HW214305   0.971   3.441   4.346 -0.5884 -0.4304 -1.4043
 3779SOL     MW14306   0.950   3.392   4.415  0.7172 -0.5674 -1.0953
 3780SOL     OW14307   2.730   4.564   1.890 -0.4942 -0.2524  0.0159
 3780SOL    HW114308   2.647   4.516   1.885 -0.8206  0.1464  1.4861
 3780SOL    HW214309   2.772   4.547   1.805 -2.1854 -0.2439 -0.8567
 3780SOL     MW14310   2.725   4.555   1.878 -0.7524 -0.2003  0.0923
 3781SOL     OW14311   1.146   2.308   3.964 -0.1600 -0.5973  0.3746
 3781SOL    HW114312   1.178   2.281   4.050 -0.1352 -0.1713  0.4988
 3781SOL    HW214313   1.204   2.262   3.902  0.4704 -0.1082  0.5952
 3781SOL     MW14314   1.158   2.298   3.967 -0.0761 -0.4802  0.4187
 3782SOL     OW14315   3.698   3.244   4.271 -0.1974 -0.0452 -0.0279
 3782SOL    HW114316   3.702   3.252   4.175 -1.2016 -1.6618 -0.2092
 3782SOL    HW214317   3.608   3.266   4.293 -0.8202 -2.7397  0.2376
 3782SOL     MW14318   3.687   3.248   4.261 -0.4055 -0.5970 -0.0167
 3783SOL     OW14319   0.192   1.356   2.489  0.2589 -0.1468 -0.1187
 3783SOL    HW114320   0.221   1.299   2.418  3.9545  1.1680  0.2190
 3783SOL    HW214321   0.210   1.444   2.457 -2.8666  0.7356  0.4514
 3783SOL     MW14322   0.198   1.360   2.476  0.3319  0.1345 -0.0026
 3784SOL     OW14323   2.497   4.911   2.349  0.2480 -0.3081  0.0124
 3784SOL    HW114324   2.538   4.899   2.435  1.6569  0.2684 -0.5767
 3784SOL    HW214325   2.569   4.904   2.287 -0.4648  1.2056 -0.9973
 3784SOL     MW14326   2.511   4.909   2.352  0.3371 -0.0405 -0.1924
 3785SOL     OW14327   5.389   2.534   4.511  0.0704 -0.0325 -0.2913
 3785SOL    HW114328   5.371   2.512   4.603 -1.2308 -0.1669 -0.5803
 3785SOL    HW214329   5.429   2.455   4.475 -1.1239 -0.6172 -0.3324
 3785SOL     MW14330   5.392   2.521   4.518 -0.2489 -0.1245 -0.3333
 3786SOL     OW14331   0.572   1.134   0.712 -0.2665  0.0200  0.4365
 3786SOL    HW114332   0.631   1.065   0.743  1.2567  0.8838 -0.4756
 3786SOL    HW214333   0.508   1.088   0.658  1.1430 -0.6175 -0.7298
 3786SOL     MW14334   0.572   1.120   0.710  0.1088  0.0490  0.1704
 3787SOL     OW14335   2.577   3.317   3.400 -0.2923  0.5900  0.0305
 3787SOL    HW114336   2.623   3.233   3.395  1.1522  1.3721  0.0524
 3787SOL    HW214337   2.489   3.297   3.370 -0.6781 -1.4430  2.3719
 3787SOL     MW14338   2.572   3.303   3.395 -0.1566  0.4299  0.3328
 3788SOL     OW14339   3.285   3.720   5.569 -0.2721 -0.0160 -0.2147
 3788SOL    HW114340   3.296   3.643   5.513  1.3335  0.9900 -1.3321
 3788SOL    HW214341   3.295   3.687   5.658 -0.3311 -1.2213 -0.6483
 3788SOL     MW14342   3.288   3.706   5.573 -0.0741 -0.0417 -0.4129
 3789SOL     OW14343   0.991   3.133   0.732 -0.8302 -0.2924  0.0465
 3789SOL    HW114344   0.914   3.158   0.681 -1.0550  0.2672  0.6566
 3789SOL    HW214345   0.991   3.038   0.730 -1.1462 -0.2847 -0.5391
 3789SOL     MW14346   0.981   3.124   0.725 -0.8994 -0.2198  0.0496
 3790SOL     OW14347   0.322   4.835   1.051 -0.2609  0.0236  0.9031
 3790SOL    HW114348   0.411   4.861   1.073 -0.2342  0.2393  0.5359
 3790SOL    HW214349   0.326   4.812   0.958 -0.7045  0.5412  0.7565
 3790SOL     MW14350   0.334   4.835   1.042 -0.3143  0.1173  0.8372
 3791SOL     OW14351   0.739   3.369   4.940  0.3193 -0.6322  0.1277
 3791SOL    HW114352   0.814   3.317   4.970  0.5209  0.6651  1.9136
 3791SOL    HW214353   0.663   3.315   4.962  0.6938 -2.7794 -3.2927
 3791SOL     MW14354   0.739   3.355   4.946  0.3930 -0.7410 -0.0820
 3792SOL     OW14355   2.043   1.883   1.587  0.0729  0.5434  0.2367
 3792SOL    HW114356   1.979   1.820   1.618 -0.5464  0.2047 -1.6882
 3792SOL    HW214357   2.103   1.895   1.661  0.1990 -2.2871  0.6263
 3792SOL     MW14358   2.043   1.876   1.600  0.0095  0.1379  0.0402
 3793SOL     OW14359   2.543   4.557   5.324  0.0745 -0.5434  0.7412
 3793SOL    HW114360   2.577   4.504   5.251  0.3551 -0.3952  0.7646
 3793SOL    HW214361   2.619   4.570   5.381 -0.0767 -0.4070  0.9097
 3793SOL     MW14362   2.557   4.552   5.322  0.0913 -0.5064  0.7658
 3794SOL     OW14363   4.469   0.826   5.615  0.1212  0.8080 -0.3721
 3794SOL    HW114364   4.440   0.805   5.526  0.1719  2.8067 -0.9040
 3794SOL    HW214365   4.391   0.863   5.657  0.3927  0.9028  0.0430
 3794SOL     MW14366   4.455   0.828   5.609  0.1621  1.0759 -0.3872
 3795SOL     OW14367   3.491   3.284   5.552 -0.6231  0.4233 -0.4979
 3795SOL    HW114368   3.464   3.302   5.641  0.6802 -0.5844  0.1229
 3795SOL    HW214369   3.543   3.360   5.527 -0.4722  0.4316 -0.1647
 3795SOL     MW14370   3.495   3.296   5.560 -0.4370  0.2954 -0.3757
 3796SOL     OW14371   4.894   2.026   4.239 -0.3230 -0.3027  0.0320
 3796SOL    HW114372   4.822   1.975   4.200 -1.2464  0.9383  0.0569
 3796SOL    HW214373   4.967   2.014   4.179 -1.1029 -0.1458 -0.9798
 3796SOL     MW14374   4.894   2.018   4.226 -0.5407 -0.1235 -0.0949
 3797SOL     OW14375   0.839   5.138   5.542  0.8831  0.1604 -0.3769
 3797SOL    HW114376   0.782   5.171   5.612  0.0457 -0.4844 -0.7480
 3797SOL    HW214377   0.926   5.167   5.567  0.6033 -0.1446  0.9980
 3797SOL     MW14378   0.843   5.146   5.554  0.7400  0.0386 -0.2484
 3798SOL     OW14379   3.022   1.232   1.067 -0.2099  0.2715  0.1831
 3798SOL    HW114380   3.064   1.226   1.153 -0.8083  1.6654  0.5843
 3798SOL    HW214381   3.074   1.298   1.020 -1.3469  1.2911  0.3393
 3798SOL     MW14382   3.034   1.240   1.072 -0.4318  0.5805  0.2544
 3799SOL     OW14383   3.462   4.403   0.015 -0.1445 -0.1126 -0.0256
 3799SOL    HW114384   3.498   4.483   0.055 -0.2283 -0.3419  0.5179
 3799SOL    HW214385   3.370   4.402   0.044  0.3780 -1.4685  1.6476
 3799SOL     MW14386   3.455   4.413   0.024 -0.0885 -0.3157  0.2582
 3800SOL     OW14387   2.187   3.803   2.878 -0.2700 -0.5621  0.4045
 3800SOL    HW114388   2.108   3.764   2.917  0.2864 -1.6892  0.4348
 3800SOL    HW214389   2.181   3.780   2.785 -1.9049  2.6444 -0.3477
 3800SOL     MW14390   2.176   3.795   2.871 -0.4077 -0.2959  0.3121
 3801SOL     OW14391   3.296   0.887   3.207  0.1681 -0.7414  0.1137
 3801SOL    HW114392   3.262   0.895   3.118 -2.1850  2.0245  1.1757
 3801SOL    HW214393   3.231   0.835   3.253 -0.7256  1.2650  1.1891
 3801SOL     MW14394   3.284   0.881   3.202 -0.2477 -0.1305  0.3874
 3802SOL     OW14395   5.372   3.705   2.200  0.1490  0.3017  0.1559
 3802SOL    HW114396   5.326   3.766   2.258 -1.0523  2.3976 -2.8903
 3802SOL    HW214397   5.303   3.659   2.153  1.0903 -0.1378 -0.8367
 3802SOL     MW14398   5.357   3.707   2.201  0.1163  0.5140 -0.3610
 3803SOL     OW14399   2.666   3.829   0.396 -0.2371  0.2650  0.1788
 3803SOL    HW114400   2.749   3.861   0.432 -1.2544  0.8561  2.0808
 3803SOL    HW214401   2.658   3.874   0.312  0.6017  1.4533  0.7145
 3803SOL     MW14402   2.676   3.839   0.390 -0.2599  0.4926  0.4908
 3804SOL     OW14403   3.434   0.884   5.825  0.1547 -0.2258 -0.7398
 3804SOL    HW114404   3.373   0.916   5.758  1.8357 -1.4080 -2.8950
 3804SOL    HW214405   3.519   0.882   5.781  1.3277 -0.9418  1.4860
 3804SOL     MW14406   3.437   0.888   5.810  0.5202 -0.4687 -0.7305
 3805SOL     OW14407   2.821   0.300   1.590 -0.1745  0.1449 -0.5600
 3805SOL    HW114408   2.889   0.368   1.590 -2.1396  2.1835  1.9356
 3805SOL    HW214409   2.830   0.258   1.504  3.4209  1.1361 -0.7765
 3805SOL     MW14410   2.831   0.303   1.579  0.0341  0.5328 -0.2682
 3806SOL     OW14411   3.333   1.312   1.942  0.1693 -0.1082 -0.5745
 3806SOL    HW114412   3.411   1.322   1.996 -0.3561  0.0334  0.1791
 3806SOL    HW214413   3.305   1.221   1.957 -0.4484  0.1765  0.0610
 3806SOL     MW14414   3.339   1.301   1.951  0.0226 -0.0536 -0.3966
 3807SOL     OW14415   3.894   0.127   0.803 -0.3961 -0.5025 -0.0100
 3807SOL    HW114416   3.810   0.169   0.783 -0.6243 -1.4494 -1.0984
 3807SOL    HW214417   3.920   0.165   0.887 -1.2350  0.8268 -0.3397
 3807SOL     MW14418   3.886   0.137   0.811 -0.5329 -0.4536 -0.1915
 3808SOL     OW14419   4.803   1.379   4.908  0.4481 -0.1000 -0.0696
 3808SOL    HW114420   4.744   1.410   4.839  0.2362 -0.8601 -0.2302
 3808SOL    HW214421   4.752   1.312   4.955  1.0551 -0.4984  0.0209
 3808SOL     MW14422   4.789   1.374   4.905  0.4988 -0.2482 -0.0787
 3809SOL     OW14423   0.772   4.048   4.721 -0.2492  0.0130  0.2980
 3809SOL    HW114424   0.736   4.124   4.765  0.5640  0.4084  0.2804
 3809SOL    HW214425   0.695   3.997   4.695 -0.7641  0.3207  1.1896
 3809SOL     MW14426   0.758   4.051   4.723 -0.2111  0.1030  0.4106
 3810SOL     OW14427   1.049   5.617   2.297  0.1091  0.3297 -0.1179
 3810SOL    HW114428   1.115   5.552   2.320  0.3800  1.1849  1.6276
 3810SOL    HW214429   1.000   5.578   2.225  3.3066  0.1755 -2.3035
 3810SOL     MW14430   1.051   5.604   2.291  0.5531  0.4191 -0.1743
 3811SOL     OW14431   3.838   5.618   2.455 -0.2138  0.4914 -0.3690
 3811SOL    HW114432   3.909   5.556   2.437 -1.5533 -0.9424 -0.8716
 3811SOL    HW214433   3.818   5.606   2.548 -0.2511  0.4095 -0.3879
 3811SOL     MW14434   3.845   5.608   2.464 -0.3903  0.2971 -0.4358
 3812SOL     OW14435   1.541   3.496   4.639 -0.1160 -0.0992 -0.4203
 3812SOL    HW114436   1.608   3.450   4.588 -0.5378 -1.6852  0.4095
 3812SOL    HW214437   1.547   3.457   4.726 -1.2177  0.6800  0.0098
 3812SOL     MW14438   1.550   3.485   4.644 -0.3111 -0.2027 -0.2589
 3813SOL     OW14439   3.272   0.936   2.466  0.7009 -0.4295  0.5174
 3813SOL    HW114440   3.177   0.945   2.456  0.8136  0.5358  0.3348
 3813SOL    HW214441   3.296   0.871   2.399  0.4695  0.9484 -0.9387
 3813SOL     MW14442   3.263   0.929   2.456  0.6855 -0.1295  0.3078
 3814SOL     OW14443   4.651   3.273   2.104  0.2565 -0.1114 -0.5237
 3814SOL    HW114444   4.616   3.350   2.058 -0.7976 -0.5843 -0.5236
 3814SOL    HW214445   4.666   3.304   2.194 -0.8666 -0.1082 -0.3358
 3814SOL     MW14446   4.649   3.287   2.110 -0.0219 -0.1717 -0.4997
 3815SOL     OW14447   3.303   0.939   2.940  0.3726  0.3118 -0.4379
 3815SOL    HW114448   3.300   1.027   2.903 -1.3561  1.0668  1.4011
 3815SOL    HW214449   3.387   0.903   2.911  0.5263  2.0661 -2.2837
 3815SOL     MW14450   3.313   0.945   2.932  0.1712  0.6330 -0.4387
 3816SOL     OW14451   1.248   5.571   5.092 -0.1530 -0.0473  0.7204
 3816SOL    HW114452   1.244   5.630   5.017 -0.3669 -2.1621 -0.9631
 3816SOL    HW214453   1.157   5.548   5.109 -0.1879  1.1238  2.2222
 3816SOL     MW14454   1.236   5.575   5.085 -0.1848 -0.1678  0.6971
 3817SOL     OW14455   0.040   2.710   4.693 -0.0598 -0.4601 -0.1372
 3817SOL    HW114456   0.080   2.785   4.650  0.4069 -0.3166  0.5486
 3817SOL    HW214457  -0.025   2.747   4.752 -1.3015 -0.6973 -1.3326
 3817SOL     MW14458   0.037   2.724   4.695 -0.1590 -0.4721 -0.2027
 3818SOL     OW14459   3.289   2.595   0.347  0.3757  0.3231  0.2080
 3818SOL    HW114460   3.343   2.596   0.427  0.3410  1.9714  0.2217
 3818SOL    HW214461   3.245   2.510   0.350  1.2348 -0.1084  1.3693
 3818SOL     MW14462   3.290   2.584   0.358  0.4814  0.4792  0.3584
 3819SOL     OW14463   3.274   2.979   0.372  0.0767 -0.0960  0.0384
 3819SOL    HW114464   3.277   3.051   0.435  0.5719  0.4785 -0.6385
 3819SOL    HW214465   3.246   2.903   0.424 -0.3849  0.5606  0.7698
 3819SOL     MW14466   3.271   2.978   0.387  0.0811  0.0615  0.0454
 3820SOL     OW14467   1.844   0.925   5.155  0.1839  0.0855  0.3735
 3820SOL    HW114468   1.790   0.867   5.210  0.8943  0.0281  1.0134
 3820SOL    HW214469   1.879   0.989   5.216  0.5877  0.3099 -0.0997
 3820SOL     MW14470   1.841   0.926   5.170  0.3265  0.1069  0.3948
 3821SOL     OW14471   5.299   5.471   5.390 -0.0769  0.1814  0.2342
 3821SOL    HW114472   5.387   5.505   5.371 -0.7815  1.1962 -1.3029
 3821SOL    HW214473   5.314   5.398   5.451  1.9147 -0.3162 -0.8165
 3821SOL     MW14474   5.312   5.466   5.395  0.0877  0.2470 -0.0968
 3822SOL     OW14475   1.406   2.351   5.294 -0.3626  0.1397  0.1744
 3822SOL    HW114476   1.453   2.406   5.232 -0.0854 -3.1695 -2.7337
 3822SOL    HW214477   1.315   2.382   5.289  0.0810  1.3972 -0.1905
 3822SOL     MW14478   1.400   2.362   5.285 -0.2702 -0.1230 -0.2446
 3823SOL     OW14479   3.634   2.370   2.874 -0.4720 -0.2757  0.0179
 3823SOL    HW114480   3.543   2.352   2.897 -0.0223 -2.7339 -0.0091
 3823SOL    HW214481   3.653   2.310   2.802  0.9654  0.6988 -0.4246
 3823SOL     MW14482   3.625   2.360   2.868 -0.2303 -0.4656 -0.0424
 3824SOL     OW14483   2.104   1.302   3.661 -0.5265 -0.5091  0.4228
 3824SOL    HW114484   2.059   1.295   3.745  1.3833  0.1260  1.5220
 3824SOL    HW214485   2.033   1.308   3.597 -2.0258  0.6411  2.1224
 3824SOL     MW14486   2.089   1.302   3.664 -0.4740 -0.2806  0.7811
 3825SOL     OW14487   3.081   2.166   5.068 -0.2240 -0.4345 -1.0155
 3825SOL    HW114488   3.083   2.130   5.156  0.4473 -1.1653 -1.3219
 3825SOL    HW214489   3.005   2.225   5.067  0.1699  0.1127  0.2531
 3825SOL     MW14490   3.072   2.169   5.079 -0.0877 -0.4580 -0.8931
 3826SOL     OW14491   5.641   1.211   1.001 -0.0406 -0.1267 -0.6419
 3826SOL    HW114492   5.561   1.250   0.968 -0.4739  0.2493  0.8283
 3826SOL    HW214493   5.620   1.118   1.013 -0.3725  0.0414  0.0915
 3826SOL     MW14494   5.628   1.204   0.998 -0.1388 -0.0572 -0.3599
 3827SOL     OW14495   4.634   5.784   1.927 -0.0117 -0.2543  0.6384
 3827SOL    HW114496   4.724   5.804   1.902 -0.1437  1.0974  1.2093
 3827SOL    HW214497   4.609   5.710   1.872  1.5854 -0.8957  0.7573
 3827SOL     MW14498   4.642   5.777   1.917  0.1760 -0.1636  0.7267
 3828SOL     OW14499   5.809   4.614   4.412  0.2242  0.3157 -0.0616
 3828SOL    HW114500   5.783   4.685   4.354 -0.7375  0.2288  0.2559
 3828SOL    HW214501   5.768   4.536   4.375 -1.1604  0.4070  1.2469
 3828SOL     MW14502   5.801   4.613   4.400 -0.0763  0.3161  0.1473
 3829SOL     OW14503   0.825   1.500   3.588 -0.1569 -0.1663 -0.0170
 3829SOL    HW114504   0.889   1.429   3.592  0.1794  0.1250 -0.1710
 3829SOL    HW214505   0.789   1.495   3.499 -0.5926 -0.5444  0.1835
 3829SOL     MW14506   0.829   1.491   3.577 -0.1697 -0.1774 -0.0107
 3830SOL     OW14507   4.205   1.499   2.385  0.1036 -0.3070 -0.6905
 3830SOL    HW114508   4.209   1.546   2.469  0.9189  0.1799 -0.9984
 3830SOL    HW214509   4.270   1.542   2.330  3.3544 -3.8951  0.0962
 3830SOL     MW14510   4.214   1.510   2.389  0.6237 -0.7041 -0.6294
 3831SOL     OW14511   4.189   2.172   1.793 -0.3003  0.1710 -0.3604
 3831SOL    HW114512   4.207   2.183   1.700 -0.3355 -1.9316 -0.6353
 3831SOL    HW214513   4.112   2.116   1.797 -1.1240  1.3437  0.9374
 3831SOL     MW14514   4.182   2.166   1.782 -0.4101  0.0517 -0.2294
 3832SOL     OW14515   0.659   5.688   3.960  0.0336  0.0591  0.2580
 3832SOL    HW114516   0.596   5.680   4.032 -0.1623  1.6741  0.2779
 3832SOL    HW214517   0.646   5.609   3.908  0.3280 -1.2526  2.1213
 3832SOL     MW14518   0.649   5.677   3.963  0.0462  0.0982  0.4992
 3833SOL     OW14519   0.935   2.568   5.555 -0.0687 -0.0258  0.2492
 3833SOL    HW114520   0.956   2.548   5.646  1.0429  1.9579  0.4442
 3833SOL    HW214521   1.020   2.579   5.513 -0.5841 -0.6936 -0.9878
 3833SOL     MW14522   0.949   2.567   5.561  0.0077  0.1426  0.1154
 3834SOL     OW14523   4.474   0.406   4.474  0.3385  1.0660  0.0053
 3834SOL    HW114524   4.458   0.428   4.382  0.5759  1.6079  0.0963
 3834SOL    HW214525   4.565   0.377   4.477  0.6351  2.0206  0.2530
 3834SOL     MW14526   4.483   0.405   4.463  0.4063  1.2576  0.0486
 3835SOL     OW14527   2.138   4.465   5.144 -0.2501  0.0298 -0.1574
 3835SOL    HW114528   2.185   4.459   5.228 -1.1086 -0.9309  0.2645
 3835SOL    HW214529   2.146   4.377   5.107  0.6136  0.6001 -1.3672
 3835SOL     MW14530   2.145   4.453   5.150 -0.2496 -0.0205 -0.2584
 3836SOL     OW14531   0.245   0.823   2.013  0.0775  0.3069  0.6877
 3836SOL    HW114532   0.212   0.913   2.019  0.0911  0.3969 -0.5097
 3836SOL    HW214533   0.237   0.801   1.920  1.7328 -0.3090  0.6853
 3836SOL     MW14534   0.240   0.832   2.002  0.2911  0.2396  0.5343
 3837SOL     OW14535   4.222   5.150   4.965  0.3870 -0.4304  0.2883
 3837SOL    HW114536   4.288   5.192   4.909 -0.4705 -1.3170 -1.4380
 3837SOL    HW214537   4.271   5.082   5.012  0.8865 -0.5443 -0.3766
 3837SOL     MW14538   4.237   5.146   4.964  0.3409 -0.5589 -0.0172
 3838SOL     OW14539   0.102   4.047   1.249  0.3071 -0.5243  0.0851
 3838SOL    HW114540   0.110   3.971   1.191  0.7057 -0.6642  0.3241
 3838SOL    HW214541   0.062   4.115   1.195 -0.1671 -0.9438 -0.0980
 3838SOL     MW14542   0.098   4.046   1.235  0.2974 -0.5960  0.0924
 3839SOL     OW14543   3.593   5.117   3.300 -0.3963  0.3782  0.2668
 3839SOL    HW114544   3.584   5.040   3.244  0.9535  1.3852 -1.3895
 3839SOL    HW214545   3.534   5.182   3.262  1.5387  1.5232 -0.8364
 3839SOL     MW14546   3.584   5.116   3.288  0.0241  0.6533 -0.0863
 3840SOL     OW14547   3.252   5.911   3.836 -0.0919  0.3407  0.1125
 3840SOL    HW114548   3.334   5.945   3.800  0.8296 -0.8464  1.0442
 3840SOL    HW214549   3.211   5.865   3.763  1.5198 -1.6041  0.3687
 3840SOL     MW14550   3.257   5.909   3.822  0.2325 -0.0606  0.2646
 3841SOL     OW14551   1.033   0.559   5.489  0.2293  0.0899  0.2526
 3841SOL    HW114552   1.079   0.525   5.566  0.9780  0.5319  0.0146
 3841SOL    HW214553   0.948   0.515   5.489 -0.2552  1.0005  2.0171
 3841SOL     MW14554   1.028   0.549   5.498  0.2632  0.2630  0.4482
 3842SOL     OW14555   3.114   3.045   4.402  0.5312 -0.1539 -0.0047
 3842SOL    HW114556   3.150   3.078   4.320  0.4936  1.5044  0.6339
 3842SOL    HW214557   3.104   2.951   4.387  0.9635  0.0534 -1.7292
 3842SOL     MW14558   3.117   3.037   4.390  0.5820  0.0849 -0.1431
 3843SOL     OW14559   1.471   1.721   0.742  0.5785 -0.4604  0.2678
 3843SOL    HW114560   1.394   1.697   0.691 -0.1667  0.3448  0.9828
 3843SOL    HW214561   1.473   1.817   0.738  1.7438 -0.4929 -0.0285
 3843SOL     MW14562   1.461   1.730   0.735  0.6324 -0.3614  0.3214
 3844SOL     OW14563   4.501   1.751   0.639  0.5743  0.0479  0.0381
 3844SOL    HW114564   4.487   1.779   0.549  0.2108  1.9289  0.6711
 3844SOL    HW214565   4.552   1.821   0.679  1.5740 -1.2147  1.0523
 3844SOL     MW14566   4.506   1.763   0.633  0.6557  0.1271  0.2490
 3845SOL     OW14567   1.419   0.540   1.011 -0.6529 -0.3904  0.0357
 3845SOL    HW114568   1.433   0.582   0.926 -1.4493 -1.5108 -0.6584
 3845SOL    HW214569   1.455   0.602   1.074  2.1987 -0.6254 -1.2909
 3845SOL     MW14570   1.426   0.553   1.008 -0.3898 -0.5639 -0.2230
 3846SOL     OW14571   1.294   3.758   4.108  0.5743  0.1888 -0.8431
 3846SOL    HW114572   1.236   3.736   4.035 -2.0158  0.0109  1.1890
 3846SOL    HW214573   1.306   3.853   4.100 -0.7131  0.3670 -0.7832
 3846SOL     MW14574   1.288   3.767   4.097  0.0778  0.1888 -0.5755
 3847SOL     OW14575   5.503   4.363   1.779  0.6606 -0.1058 -1.0072
 3847SOL    HW114576   5.438   4.403   1.837  0.7638  0.0233 -0.9790
 3847SOL    HW214577   5.542   4.293   1.831 -0.6032 -1.2601 -1.5806
 3847SOL     MW14578   5.500   4.359   1.793  0.5116 -0.2375 -1.0769
 3848SOL     OW14579   0.666   5.214   4.951 -0.1628 -0.4971 -0.4710
 3848SOL    HW114580   0.629   5.303   4.959 -1.6124 -1.1309  0.1694
 3848SOL    HW214581   0.623   5.178   4.873  0.9882 -0.3811 -1.1623
 3848SOL     MW14582   0.656   5.221   4.942 -0.2010 -0.5636 -0.4778
 3849SOL     OW14583   1.734   3.844   0.175  0.2584  0.2207 -0.4676
 3849SOL    HW114584   1.759   3.874   0.087  0.0805 -0.2992 -0.6988
 3849SOL    HW214585   1.650   3.801   0.162 -0.1740  0.9021  0.1085
 3849SOL     MW14586   1.727   3.842   0.162  0.1802  0.2410 -0.4234
 3850SOL     OW14587   4.145   2.742   0.408  0.1005  0.1363 -0.8432
 3850SOL    HW114588   4.241   2.740   0.407  0.1037 -0.0556 -0.3334
 3850SOL    HW214589   4.123   2.832   0.432  0.1675 -0.1365  0.2771
 3850SOL     MW14590   4.154   2.753   0.411  0.1092  0.0765 -0.6346
 3851SOL     OW14591   2.146   1.699   0.351 -0.0196 -0.1833  0.0728
 3851SOL    HW114592   2.069   1.733   0.306 -1.6912 -0.7640  2.4000
 3851SOL    HW214593   2.124   1.705   0.444  2.7767 -0.3030  0.7808
 3851SOL     MW14594   2.133   1.704   0.357  0.1245 -0.2729  0.4613
 3852SOL     OW14595   4.219   3.243   3.280 -0.0382  0.1952  0.5085
 3852SOL    HW114596   4.244   3.335   3.266 -0.4454  0.0122 -1.6730
 3852SOL    HW214597   4.247   3.224   3.369  2.0848  1.7907  0.2346
 3852SOL     MW14598   4.226   3.252   3.290  0.1812  0.3760  0.1943
 3853SOL     OW14599   4.764   3.630   2.735  0.5907  0.1780 -0.3439
 3853SOL    HW114600   4.780   3.718   2.701  1.1861 -0.5643 -1.9994
 3853SOL    HW214601   4.806   3.571   2.673  1.8055 -1.2210  1.7154
 3853SOL     MW14602   4.771   3.634   2.723  0.8221 -0.0961 -0.2923
 3854SOL     OW14603   0.893   4.484   5.360 -0.4206 -0.5293 -0.0271
 3854SOL    HW114604   0.861   4.556   5.305 -0.2052 -0.9525 -0.7123
 3854SOL    HW214605   0.825   4.472   5.426 -1.2783 -0.8469 -0.9474
 3854SOL     MW14606   0.880   4.492   5.361 -0.5028 -0.6242 -0.2327
 3855SOL     OW14607   0.301   0.887   0.910  0.1042 -0.4219 -0.1467
 3855SOL    HW114608   0.371   0.923   0.964 -1.0316 -0.6011  1.4651
 3855SOL    HW214609   0.264   0.963   0.865 -0.4990  0.0697  1.1564
 3855SOL     MW14610   0.305   0.901   0.911 -0.1184 -0.3818  0.2264
 3856SOL     OW14611   1.928   4.038   1.757 -0.0773 -0.0070  0.2847
 3856SOL    HW114612   1.869   3.992   1.816 -0.6383 -0.5484 -0.6930
 3856SOL    HW214613   1.878   4.115   1.729  0.8110  1.1405  1.8191
 3856SOL     MW14614   1.914   4.042   1.761 -0.0354  0.0706  0.3560
 3857SOL     OW14615   1.250   1.556   3.940  0.1311  0.4388 -0.0038
 3857SOL    HW114616   1.304   1.549   4.019 -0.2362 -1.5210  0.0952
 3857SOL    HW214617   1.266   1.475   3.892 -0.6684  1.0266 -1.2967
 3857SOL     MW14618   1.259   1.544   3.944 -0.0182  0.2631 -0.1566
 3858SOL     OW14619   2.833   3.879   4.979 -0.4099 -0.3696  0.0256
 3858SOL    HW114620   2.816   3.787   5.001  0.1401 -0.9083 -1.7903
 3858SOL    HW214621   2.918   3.898   5.019 -1.1332 -0.2393  1.5501
 3858SOL     MW14622   2.841   3.869   4.987 -0.4323 -0.4218 -0.0110
 3859SOL     OW14623   3.738   5.400   1.790  0.4488 -0.1680  0.4896
 3859SOL    HW114624   3.779   5.365   1.868  0.2467  0.4915  0.8979
 3859SOL    HW214625   3.805   5.455   1.750 -0.8202  3.0864  2.5915
 3859SOL     MW14626   3.751   5.403   1.795  0.2604  0.3333  0.8111
 3860SOL     OW14627   4.444   5.658   5.669  0.6486 -0.0028 -0.0069
 3860SOL    HW114628   4.366   5.621   5.627 -0.4450  0.9242  1.1395
 3860SOL    HW214629   4.504   5.676   5.597  0.0129 -1.2239 -0.8654
 3860SOL     MW14630   4.442   5.656   5.655  0.4268 -0.0405  0.0305
 3861SOL     OW14631   4.201   4.833   2.030 -0.1196 -0.1370 -0.3452
 3861SOL    HW114632   4.142   4.776   2.080  2.0482 -1.7739  0.4212
 3861SOL    HW214633   4.257   4.873   2.096 -0.7687  1.9203 -1.0077
 3861SOL     MW14634   4.201   4.831   2.045  0.0749 -0.0834 -0.3316
 3862SOL     OW14635   5.878   3.629   4.116 -0.2491  0.2434 -0.5194
 3862SOL    HW114636   5.803   3.688   4.110 -1.1030 -0.5024  1.9409
 3862SOL    HW214637   5.845   3.544   4.087 -0.1665  0.0721 -0.1156
 3862SOL     MW14638   5.864   3.626   4.112 -0.3476  0.1259 -0.1526
 3863SOL     OW14639   1.744   1.314   4.243 -0.3604  0.0223  0.1361
 3863SOL    HW114640   1.668   1.269   4.279 -0.5145 -0.4079 -0.7093
 3863SOL    HW214641   1.743   1.400   4.285  0.4750 -1.0782  2.4596
 3863SOL     MW14642   1.734   1.319   4.253 -0.2731 -0.1737  0.3252
 3864SOL     OW14643   0.579   4.555   2.470  0.6802 -0.2820 -0.0852
 3864SOL    HW114644   0.615   4.480   2.519  2.1762  0.4294 -0.0839
 3864SOL    HW214645   0.597   4.535   2.379 -0.2147 -0.5983 -0.1988
 3864SOL     MW14646   0.586   4.543   2.465  0.7572 -0.2313 -0.0997
 3865SOL     OW14647   3.409   3.862   2.235  0.2291 -0.8285  0.1440
 3865SOL    HW114648   3.437   3.795   2.172 -0.4435 -0.8133 -0.1760
 3865SOL    HW214649   3.346   3.916   2.186  1.0647  0.2860  0.2689
 3865SOL     MW14650   3.404   3.861   2.221  0.2499 -0.6840  0.1190
 3866SOL     OW14651   5.858   4.961   5.336  0.1655  0.3756 -0.0513
 3866SOL    HW114652   5.908   4.988   5.413  3.2106 -0.2167 -1.7292
 3866SOL    HW214653   5.873   4.866   5.330 -0.4204  0.3486 -1.1158
 3866SOL     MW14654   5.866   4.952   5.345  0.4807  0.2961 -0.4025
 3867SOL     OW14655   3.783   5.527   3.062  0.7272  0.4713  0.1903
 3867SOL    HW114656   3.809   5.564   3.147 -0.4128  0.9805  0.3168
 3867SOL    HW214657   3.866   5.518   3.014  1.7372 -2.5250  2.3998
 3867SOL     MW14658   3.797   5.531   3.067  0.7107  0.1526  0.4892
 3868SOL     OW14659   3.041   4.505   0.957 -0.2646 -0.0781 -0.2427
 3868SOL    HW114660   2.977   4.540   1.019  1.0451  3.7202 -0.9111
 3868SOL    HW214661   2.989   4.480   0.880 -1.1355  1.3693 -0.1348
 3868SOL     MW14662   3.026   4.506   0.955 -0.2084  0.5932 -0.3145
 3869SOL     OW14663   4.463   0.665   1.610  0.0367 -0.3673 -0.1723
 3869SOL    HW114664   4.414   0.593   1.571  0.3093 -2.0237  2.3483
 3869SOL    HW214665   4.403   0.704   1.673  0.2975  0.8523 -0.6622
 3869SOL     MW14666   4.449   0.661   1.613  0.1049 -0.4232  0.0876
 3870SOL     OW14667   5.319   3.125   3.053 -0.3327 -0.1292 -0.0917
 3870SOL    HW114668   5.310   3.077   3.135  0.8052  1.7885  1.1840
 3870SOL    HW214669   5.276   3.069   2.988 -0.8307 -1.8948  1.7046
 3870SOL     MW14670   5.312   3.112   3.055 -0.2508 -0.1097  0.3016
 3871SOL     OW14671   3.402   4.244   3.312 -0.3340  0.0623 -0.4332
 3871SOL    HW114672   3.417   4.237   3.218  0.3667  3.1209 -0.5816
 3871SOL    HW214673   3.472   4.192   3.352  0.1364 -0.1724 -1.5604
 3871SOL     MW14674   3.413   4.236   3.305 -0.1841  0.4239 -0.5963
 3872SOL     OW14675   0.344   3.437   3.233 -0.2137  0.3113 -0.6807
 3872SOL    HW114676   0.383   3.507   3.181 -1.0506  1.6963  0.5419
 3872SOL    HW214677   0.318   3.371   3.168  1.7600  0.5049 -1.7317
 3872SOL     MW14678   0.346   3.437   3.218 -0.0682  0.5136 -0.6588
 3873SOL     OW14679   0.721   0.214   0.495  0.9688  0.1292  0.5818
 3873SOL    HW114680   0.790   0.279   0.507  3.0878 -1.9397  0.0008
 3873SOL    HW214681   0.713   0.172   0.581  0.7538  0.0669  0.5294
 3873SOL     MW14682   0.729   0.217   0.508  1.2125 -0.1436  0.5007
 3874SOL     OW14683   3.435   4.991   4.621  0.4549 -0.0190  0.1103
 3874SOL    HW114684   3.381   4.954   4.551  0.6697  1.2153 -0.7292
 3874SOL    HW214685   3.525   4.973   4.595  0.5201 -0.0521  0.3521
 3874SOL     MW14686   3.439   4.984   4.609  0.4907  0.1349  0.0334
 3875SOL     OW14687   3.792   4.229   1.685  0.2620 -0.1139  0.1907
 3875SOL    HW114688   3.881   4.234   1.650 -0.4083 -0.6865 -1.6812
 3875SOL    HW214689   3.736   4.235   1.608 -1.3537  1.0167  1.4314
 3875SOL     MW14690   3.797   4.230   1.671 -0.0308 -0.0420  0.1098
 3876SOL     OW14691   1.004   1.735   1.517 -0.1351  0.3951 -0.5638
 3876SOL    HW114692   1.096   1.749   1.540  0.1010 -0.1014 -1.2090
 3876SOL    HW214693   0.958   1.809   1.557  0.5379  0.6066 -0.1838
 3876SOL     MW14694   1.010   1.747   1.525 -0.0187  0.3586 -0.5978
 3877SOL     OW14695   3.990   1.011   1.074  0.3593  0.3654 -0.4902
 3877SOL    HW114696   3.980   1.091   1.022 -2.0720  0.7751  0.5319
 3877SOL    HW214697   3.917   1.014   1.136  2.3839 -0.7900  2.0330
 3877SOL     MW14698   3.980   1.022   1.075  0.3073  0.2699 -0.0364
 3878SOL     OW14699   4.359   3.496   0.504 -0.4881 -0.2778  0.4001
 3878SOL    HW114700   4.344   3.525   0.414  1.1598 -2.9588 -0.8046
 3878SOL    HW214701   4.297   3.547   0.556 -2.5583  0.2162 -2.4273
 3878SOL     MW14702   4.349   3.506   0.499 -0.5422 -0.5579 -0.1161
 3879SOL     OW14703   1.911   3.568   1.634 -0.0140  0.2682 -0.5911
 3879SOL    HW114704   1.947   3.562   1.545  0.0251 -0.2834 -0.5349
 3879SOL    HW214705   1.893   3.662   1.645 -1.9345  0.0783 -1.9311
 3879SOL     MW14706   1.914   3.580   1.624 -0.2548  0.1733 -0.7553
 3880SOL     OW14707   1.986   4.475   1.794 -0.2309 -0.2450  0.0506
 3880SOL    HW114708   1.899   4.442   1.820 -0.5987 -0.0699 -0.9462
 3880SOL    HW214709   1.987   4.468   1.699  1.2645 -1.2362  0.1295
 3880SOL     MW14710   1.975   4.470   1.785 -0.0865 -0.3490 -0.0668
 3881SOL     OW14711   4.221   3.939   3.469 -0.4479 -0.1301  0.6102
 3881SOL    HW114712   4.170   3.950   3.389  1.0136 -0.8021 -0.4391
 3881SOL    HW214713   4.305   3.981   3.451 -0.8024  1.4995  2.5357
 3881SOL     MW14714   4.225   3.945   3.457 -0.3066 -0.0076  0.7224
 3882SOL     OW14715   2.925   3.218   3.999 -0.3321 -0.1814 -0.0553
 3882SOL    HW114716   2.953   3.309   4.011  1.3560 -0.8127  1.0483
 3882SOL    HW214717   2.994   3.178   3.945 -1.8933 -0.4058 -1.9261
 3882SOL     MW14718   2.937   3.224   3.994 -0.3159 -0.2911 -0.1535
 3883SOL     OW14719   4.043   0.577   2.614 -0.8819 -0.5483  0.2982
 3883SOL    HW114720   3.957   0.576   2.655 -0.1431 -0.4519  1.9111
 3883SOL    HW214721   4.041   0.505   2.551 -2.8840  0.8754 -1.3021
 3883SOL     MW14722   4.032   0.568   2.611 -1.0438 -0.3537  0.2997
 3884SOL     OW14723   1.646   2.911   3.917 -0.1496  0.4680 -0.2820
 3884SOL    HW114724   1.680   2.822   3.906  1.3346  1.0458 -0.4198
 3884SOL    HW214725   1.669   2.955   3.836 -3.3758  0.2162 -1.4078
 3884SOL     MW14726   1.653   2.905   3.905 -0.3725  0.5097 -0.4439
 3885SOL     OW14727   2.526   2.124   5.457 -0.1824 -0.2481  0.5868
 3885SOL    HW114728   2.606   2.117   5.405  1.4294  1.2588  2.7698
 3885SOL    HW214729   2.488   2.208   5.430 -1.5604 -1.4138 -1.1472
 3885SOL     MW14730   2.532   2.134   5.447 -0.1523 -0.2046  0.6442
 3886SOL     OW14731   1.330   3.797   3.071  0.1076 -0.3934  0.0460
 3886SOL    HW114732   1.336   3.733   3.000 -0.7207 -0.2055 -0.1957
 3886SOL    HW214733   1.397   3.770   3.134  1.9740  0.3674 -1.5583
 3886SOL     MW14734   1.339   3.785   3.070  0.2406 -0.2720 -0.1905
 3887SOL     OW14735   0.083   2.680   4.030  0.5174 -0.3535  0.1645
 3887SOL    HW114736   0.024   2.755   4.036  0.3700 -0.4453 -0.1083
 3887SOL    HW214737   0.028   2.605   4.050  0.7040 -0.3751  0.6064
 3887SOL     MW14738   0.068   2.680   4.033  0.5224 -0.3679  0.1864
 3888SOL     OW14739   2.736   4.496   3.583  0.3566 -0.0352  0.2992
 3888SOL    HW114740   2.792   4.560   3.627  0.7431  0.0714 -0.3436
 3888SOL    HW214741   2.695   4.545   3.512 -0.6870 -0.0734  0.8674
 3888SOL     MW14742   2.738   4.510   3.580  0.2725 -0.0267  0.2899
 3889SOL     OW14743   3.061   5.143   0.283  0.4807  0.2067 -0.2738
 3889SOL    HW114744   3.127   5.117   0.218  0.3169 -1.0912  0.0575
 3889SOL    HW214745   3.104   5.128   0.367 -0.5352 -1.5042 -0.0414
 3889SOL     MW14746   3.075   5.137   0.285  0.3295 -0.1788 -0.2016
 3890SOL     OW14747   4.793   1.018   4.212  0.5675 -0.5520 -0.1009
 3890SOL    HW114748   4.727   1.087   4.224  2.1848  1.2431 -1.1989
 3890SOL    HW214749   4.812   0.987   4.300 -0.7992 -0.1954  0.3315
 3890SOL     MW14750   4.787   1.023   4.225  0.5994 -0.2764 -0.1864
 3891SOL     OW14751   2.356   5.073   4.873 -0.2953  0.6022  0.3645
 3891SOL    HW114752   2.426   5.011   4.894  1.8773  2.8769  0.0230
 3891SOL    HW214753   2.308   5.083   4.955  1.9827  1.7188  1.6192
 3891SOL     MW14754   2.359   5.066   4.886  0.2744  1.0357  0.4811
 3892SOL     OW14755   1.760   5.143   3.254  0.1861 -0.5668 -0.8272
 3892SOL    HW114756   1.682   5.166   3.204 -1.4061 -2.3766  0.7242
 3892SOL    HW214757   1.795   5.066   3.210 -0.9058 -1.8323  0.4653
 3892SOL     MW14758   1.755   5.136   3.242 -0.1576 -0.9608 -0.4632
 3893SOL     OW14759   4.289   4.133   2.462  0.3301 -0.3744 -0.5585
 3893SOL    HW114760   4.197   4.155   2.480  0.4005 -1.2337  1.0035
 3893SOL    HW214761   4.321   4.205   2.409 -0.3993  1.5244  1.5040
 3893SOL     MW14762   4.281   4.145   2.458  0.2456 -0.2408 -0.0942
 3894SOL     OW14763   0.758   0.440   0.231  0.1002  0.6048  0.0845
 3894SOL    HW114764   0.808   0.360   0.215  2.1562  1.7996  0.3158
 3894SOL    HW214765   0.711   0.456   0.150 -2.1620 -2.0383  0.7658
 3894SOL     MW14766   0.759   0.432   0.219  0.0737  0.4194  0.2013
 3895SOL     OW14767   1.323   3.684   0.286 -0.3598  0.1328 -0.2476
 3895SOL    HW114768   1.367   3.688   0.201  0.2541 -0.4695  0.0375
 3895SOL    HW214769   1.292   3.594   0.293 -0.5790  0.2319  0.0842
 3895SOL     MW14770   1.325   3.673   0.276 -0.3092  0.0687 -0.1687
 3896SOL     OW14771   3.974   4.306   5.486  0.0541  0.2794 -1.1929
 3896SOL    HW114772   4.014   4.392   5.493  0.2837  0.0587  0.2331
 3896SOL    HW214773   3.881   4.321   5.503  0.3716 -0.0190  0.8857
 3896SOL     MW14774   3.967   4.319   5.489  0.1240  0.2131 -0.7443
 3897SOL     OW14775   5.035   3.508   0.879 -0.4964  0.2297  0.1258
 3897SOL    HW114776   5.112   3.469   0.838 -0.4440  0.6272 -0.1499
 3897SOL    HW214777   4.977   3.433   0.896 -0.0666 -0.0639  0.3037
 3897SOL     MW14778   5.037   3.493   0.876 -0.4349  0.2434  0.1133
 3898SOL     OW14779   4.515   3.572   2.310 -0.3830 -0.0877  0.0706
 3898SOL    HW114780   4.531   3.664   2.333  1.5112 -0.9678  2.5071
 3898SOL    HW214781   4.421   3.568   2.292 -0.5009  2.3291 -0.0502
 3898SOL     MW14782   4.505   3.583   2.311 -0.1559  0.1087  0.3669
 3899SOL     OW14783   5.714   4.824   1.745 -0.7860  0.1116 -0.2472
 3899SOL    HW114784   5.705   4.774   1.665 -1.0851  0.2155 -0.2816
 3899SOL    HW214785   5.710   4.759   1.815 -1.1252  0.0789 -0.2936
 3899SOL     MW14786   5.712   4.809   1.744 -0.8678  0.1206 -0.2575
 3900SOL     OW14787   5.446   2.048   0.722  0.1187  0.3068 -0.1179
 3900SOL    HW114788   5.374   1.985   0.726 -1.3914  1.8962 -1.3943
 3900SOL    HW214789   5.421   2.117   0.783  1.6020 -0.1256  1.0166
 3900SOL     MW14790   5.434   2.048   0.730  0.1154  0.4551 -0.1361
 3901SOL     OW14791   5.970   1.053   4.337  0.4068 -0.1355  0.0187
 3901SOL    HW114792   6.062   1.065   4.310  0.5113  2.3603  1.3541
 3901SOL    HW214793   5.970   1.071   4.431 -1.7513  1.7282 -0.3073
 3901SOL     MW14794   5.982   1.057   4.345  0.1440  0.4226  0.1478
 3902SOL     OW14795   1.257   3.823   5.710  0.0533  0.5214  0.1624
 3902SOL    HW114796   1.238   3.748   5.653 -1.7016 -0.1151  1.5402
 3902SOL    HW214797   1.330   3.794   5.764 -1.8413 -0.9535  2.0038
 3902SOL     MW14798   1.264   3.810   5.709 -0.4138  0.2511  0.5741
 3903SOL     OW14799   3.627   3.143   0.474  0.3833 -0.8401  0.3801
 3903SOL    HW114800   3.654   3.053   0.455 -0.0595 -0.9712  0.3690
 3903SOL    HW214801   3.662   3.194   0.400 -0.6088 -1.2259 -0.3613
 3903SOL     MW14802   3.635   3.138   0.462  0.1993 -0.9062  0.2837
 3904SOL     OW14803   3.582   0.263   3.193 -0.2316 -0.1746  0.1692
 3904SOL    HW114804   3.521   0.330   3.224 -0.2542  0.6179 -1.5257
 3904SOL    HW214805   3.559   0.250   3.101  1.4648 -0.6103 -0.2192
 3904SOL     MW14806   3.571   0.270   3.185 -0.0174 -0.1290 -0.0975
 3905SOL     OW14807   3.420   5.470   0.984 -0.2374 -0.4093  0.2630
 3905SOL    HW114808   3.482   5.411   1.026  1.0407  0.0430 -0.9692
 3905SOL    HW214809   3.345   5.471   1.043  0.5886 -1.6011  1.3590
 3905SOL     MW14810   3.418   5.463   0.997  0.0319 -0.5035  0.2455
 3906SOL     OW14811   2.885   0.886   2.837 -0.9971 -0.1058  0.6100
 3906SOL    HW114812   2.812   0.835   2.801 -1.7352 -0.1710  2.1543
 3906SOL    HW214813   2.963   0.837   2.812 -1.3820  0.5433 -2.0172
 3906SOL     MW14814   2.886   0.873   2.829 -1.1406 -0.0311  0.4711
 3907SOL     OW14815   2.471   1.111   0.330 -0.4811 -0.1993 -0.1253
 3907SOL    HW114816   2.551   1.109   0.278 -1.2775  2.7012 -1.5730
 3907SOL    HW214817   2.500   1.096   0.420  1.1791 -3.0276 -1.0996
 3907SOL     MW14818   2.485   1.109   0.335 -0.3705 -0.1901 -0.4354
 3908SOL     OW14819   2.166   2.206   4.165 -0.2029 -0.2909 -0.3237
 3908SOL    HW114820   2.262   2.214   4.171 -0.4279  3.2470  0.0112
 3908SOL    HW214821   2.148   2.116   4.189  3.0694 -1.0614 -0.4548
 3908SOL     MW14822   2.176   2.196   4.168  0.1872  0.0637 -0.2980
 3909SOL     OW14823   0.008   0.322   3.862 -0.0284  0.1007  0.5831
 3909SOL    HW114824   0.082   0.371   3.899 -0.3253  0.9590  0.0485
 3909SOL    HW214825  -0.067   0.348   3.915 -0.0883 -0.1799  0.6344
 3909SOL     MW14826   0.008   0.332   3.873 -0.0741  0.1746  0.5209
 3910SOL     OW14827   1.355   2.932   1.529 -0.3788 -0.1757 -0.8138
 3910SOL    HW114828   1.318   2.851   1.493  1.2277 -1.5488  0.5606
 3910SOL    HW214829   1.280   2.978   1.566 -1.0965 -1.7164 -0.3133
 3910SOL     MW14830   1.340   2.927   1.529 -0.2650 -0.5486 -0.5738
 3911SOL     OW14831   0.773   4.927   4.752  0.3883  0.0619  0.6005
 3911SOL    HW114832   0.727   5.008   4.728 -1.2462 -1.4322 -1.5227
 3911SOL    HW214833   0.747   4.912   4.843 -0.2171  1.3062  0.6556
 3911SOL     MW14834   0.763   4.936   4.761  0.1016  0.0296  0.3357
 3912SOL     OW14835   3.869   3.508   2.278  0.0645  0.3909 -0.4656
 3912SOL    HW114836   3.956   3.543   2.298 -1.1834  2.2881  1.8761
 3912SOL    HW214837   3.824   3.509   2.362 -1.7706 -1.9254 -1.3949
 3912SOL     MW14838   3.875   3.513   2.291 -0.3302  0.3376 -0.2847
 3913SOL     OW14839   5.244   0.576   0.824 -0.3279  1.0059  0.2227
 3913SOL    HW114840   5.258   0.557   0.731 -0.0873  1.4582  0.1680
 3913SOL    HW214841   5.326   0.615   0.853 -0.0643  0.0233  0.8496
 3913SOL     MW14842   5.256   0.578   0.816 -0.2637  0.9381  0.2959
 3914SOL     OW14843   4.314   3.686   1.238 -0.8239  0.6632  0.3625
 3914SOL    HW114844   4.303   3.747   1.165 -2.7237 -0.1033 -0.0140
 3914SOL    HW214845   4.274   3.605   1.208 -1.7498  0.3797  2.2956
 3914SOL     MW14846   4.308   3.684   1.225 -1.1859  0.5288  0.5617
 3915SOL     OW14847   5.918   5.030   1.805  0.1812 -0.1583 -0.0616
 3915SOL    HW114848   5.867   5.067   1.877 -0.2356  0.7600 -0.8152
 3915SOL    HW214849   5.868   4.954   1.776  0.3121 -0.4875  0.5648
 3915SOL     MW14850   5.905   5.025   1.810  0.1445 -0.0825 -0.0780
 3916SOL     OW14851   4.210   5.732   1.189  0.6801  0.1926 -0.3508
 3916SOL    HW114852   4.168   5.810   1.154  1.2142  1.3332  1.4626
 3916SOL    HW214853   4.173   5.723   1.278  1.2118 -1.1547 -0.2448
 3916SOL     MW14854   4.200   5.741   1.196  0.8168  0.1664 -0.1050
 3917SOL     OW14855   5.409   1.892   4.616  0.0446  0.2946  0.2959
 3917SOL    HW114856   5.465   1.816   4.602  0.6468  0.8852 -0.6225
 3917SOL    HW214857   5.335   1.878   4.557  0.9663  1.1929 -1.1233
 3917SOL     MW14858   5.407   1.881   4.607  0.2398  0.4851 -0.0033
 3918SOL     OW14859   0.801   1.780   3.510 -0.0786 -0.6834 -0.4232
 3918SOL    HW114860   0.796   1.686   3.527 -0.0504 -0.6788 -0.3892
 3918SOL    HW214861   0.719   1.815   3.546  0.0228 -0.6603 -0.2159
 3918SOL     MW14862   0.790   1.773   3.517 -0.0619 -0.6799 -0.3922
 3919SOL     OW14863   0.277   0.720   4.361 -0.4799 -0.4622 -0.4565
 3919SOL    HW114864   0.307   0.726   4.271 -0.9936  1.2901 -0.5413
 3919SOL    HW214865   0.181   0.717   4.354 -0.5705  0.8202  0.0504
 3919SOL     MW14866   0.268   0.720   4.349 -0.5573 -0.0737 -0.4029
 3920SOL     OW14867   2.361   0.816   1.065 -0.0453 -0.5163 -0.5565
 3920SOL    HW114868   2.324   0.854   0.985  0.3250  0.5279 -0.2326
 3920SOL    HW214869   2.396   0.890   1.113  1.0439 -1.3208 -0.1012
 3920SOL     MW14870   2.360   0.830   1.061  0.1416 -0.4856 -0.4568
 3921SOL     OW14871   5.019   2.650   3.936 -0.4200 -0.3962  0.1373
 3921SOL    HW114872   5.051   2.577   3.990  0.4877 -0.7264 -0.8150
 3921SOL    HW214873   4.925   2.638   3.932 -0.2268 -1.8817 -0.4762
 3921SOL     MW14874   5.011   2.639   3.942 -0.2789 -0.6285 -0.0629
 3922SOL     OW14875   1.699   1.992   1.732 -0.0708 -0.1398  0.2929
 3922SOL    HW114876   1.674   2.041   1.654  2.3747  1.1027  0.2297
 3922SOL    HW214877   1.626   1.932   1.748 -1.2438  0.6090 -2.0761
 3922SOL     MW14878   1.687   1.991   1.724  0.0920  0.1152 -0.0185
 3923SOL     OW14879   2.132   5.456   2.655  0.1147 -0.2758  0.3740
 3923SOL    HW114880   2.196   5.507   2.606 -0.0537  0.9777  1.4540
 3923SOL    HW214881   2.175   5.371   2.669  2.2539  1.1099  2.5719
 3923SOL     MW14882   2.146   5.451   2.651  0.3672  0.0620  0.7935
 3924SOL     OW14883   5.943   3.271   2.939  0.0628  0.3575 -0.5631
 3924SOL    HW114884   5.893   3.190   2.953  1.2285 -0.5891 -1.7823
 3924SOL    HW214885   5.968   3.268   2.847  2.0894  0.9726 -0.0528
 3924SOL     MW14886   5.940   3.260   2.929  0.4716  0.3150 -0.6540
 3925SOL     OW14887   2.299   4.579   5.697  0.1409 -0.1593 -0.2499
 3925SOL    HW114888   2.218   4.531   5.711 -1.4922  2.3113 -0.9979
 3925SOL    HW214889   2.356   4.517   5.652 -1.6949 -1.6062 -0.6205
 3925SOL     MW14890   2.296   4.565   5.693 -0.3033 -0.0286 -0.3934
 3926SOL     OW14891   4.973   4.881   5.493  0.0395 -0.0870 -0.0914
 3926SOL    HW114892   5.003   4.819   5.426 -1.3810 -1.5308  0.5678
 3926SOL    HW214893   4.973   4.830   5.574  0.4443  1.2641  0.7706
 3926SOL     MW14894   4.977   4.866   5.495 -0.0911 -0.0992  0.1035
 3927SOL     OW14895   3.944   1.254   1.614  0.3324  0.1597  0.6049
 3927SOL    HW114896   3.936   1.346   1.591 -0.9096  0.0235  0.4644
 3927SOL    HW214897   3.998   1.216   1.545  1.0363  0.8286  0.7922
 3927SOL     MW14898   3.950   1.261   1.602  0.2635  0.2278  0.6109
 3928SOL     OW14899   4.810   1.623   2.727 -0.2515 -0.2663 -0.4980
 3928SOL    HW114900   4.758   1.549   2.697 -0.8231  0.2695 -0.8432
 3928SOL    HW214901   4.763   1.656   2.804  0.7313 -1.0908  0.4629
 3928SOL     MW14902   4.797   1.618   2.733 -0.1988 -0.3033 -0.4194
 3929SOL     OW14903   5.781   5.620   3.321  0.1048 -0.0485 -0.4717
 3929SOL    HW114904   5.853   5.570   3.283  0.1636 -0.9559  0.7855
 3929SOL    HW214905   5.817   5.659   3.400 -0.1109  1.5345 -1.1278
 3929SOL     MW14906   5.795   5.619   3.326  0.0844  0.0381 -0.3946
 3930SOL     OW14907   0.479   0.010   0.761 -0.0145 -0.2594  0.8792
 3930SOL    HW114908   0.428   0.011   0.842  0.1196 -0.5451  0.9695
 3930SOL    HW214909   0.488  -0.083   0.740  0.5665 -0.2134  0.9289
 3930SOL     MW14910   0.474  -0.002   0.769  0.0770 -0.2899  0.8972
 3931SOL     OW14911   3.005   3.872   0.104  0.8811  0.3944 -0.6060
 3931SOL    HW114912   2.988   3.826   0.186  0.6718  0.0283 -0.8548
 3931SOL    HW214913   2.984   3.964   0.123 -1.1020 -0.0083 -0.8196
 3931SOL     MW14914   3.000   3.878   0.117  0.6003  0.2959 -0.6651
 3932SOL     OW14915   4.450   2.602   5.063  0.3351 -0.0703 -0.1884
 3932SOL    HW114916   4.473   2.691   5.037 -2.2419  0.4599 -0.7768
 3932SOL    HW214917   4.381   2.576   5.003  1.7642 -2.8946 -0.6830
 3932SOL     MW14918   4.444   2.610   5.052  0.1884 -0.3641 -0.3271
 3933SOL     OW14919   4.267   3.827   5.067  0.1830  0.8129 -0.6807
 3933SOL    HW114920   4.259   3.792   4.978 -0.3394  1.5518 -0.9293
 3933SOL    HW214921   4.342   3.886   5.063  0.1372  0.8736 -0.6393
 3933SOL     MW14922   4.276   3.830   5.055  0.1101  0.9153 -0.7071
 3934SOL     OW14923   3.552   3.164   3.977  0.2838  0.8108 -0.2736
 3934SOL    HW114924   3.536   3.258   3.974  0.9071  0.8915 -1.3784
 3934SOL    HW214925   3.486   3.126   3.919  0.7181  0.6710 -0.6785
 3934SOL     MW14926   3.542   3.171   3.969  0.4191  0.8032 -0.4668
 3935SOL     OW14927   3.332   2.442   5.787  0.1538  0.6558  0.2303
 3935SOL    HW114928   3.416   2.398   5.779  1.5191  2.8116  2.0126
 3935SOL    HW214929   3.283   2.391   5.852  0.3646 -0.1403 -0.2275
 3935SOL     MW14930   3.336   2.430   5.794  0.3555  0.8299  0.3996
 3936SOL     OW14931   2.255   2.045   2.436  0.0183  0.3824 -0.0342
 3936SOL    HW114932   2.201   2.027   2.359 -0.3174 -0.6626  0.4323
 3936SOL    HW214933   2.193   2.077   2.502  0.0072 -0.5360  0.4077
 3936SOL     MW14934   2.240   2.047   2.435 -0.0262  0.1311  0.0825
 3937SOL     OW14935   1.915   0.441   2.996  0.2154  0.2056  0.9447
 3937SOL    HW114936   1.887   0.507   2.933  1.7895 -0.1469 -0.1292
 3937SOL    HW214937   1.892   0.479   3.081  0.7453  1.9723  0.3320
 3937SOL     MW14938   1.908   0.454   2.999  0.4847  0.3866  0.7291
 3938SOL     OW14939   0.625   5.085   0.182  0.2784  0.0263  1.3819
 3938SOL    HW114940   0.676   5.025   0.237 -1.5127 -1.9268  0.9700
 3938SOL    HW214941   0.559   5.121   0.242  0.7664  0.9135  1.4030
 3938SOL     MW14942   0.623   5.082   0.197  0.1116 -0.1106  1.3319
 3939SOL     OW14943   3.172   1.201   5.765  0.2252 -0.4396  0.0904
 3939SOL    HW114944   3.147   1.173   5.853 -0.5883 -1.8893 -0.5875
 3939SOL    HW214945   3.203   1.122   5.722  0.1443  0.1667 -1.0977
 3939SOL     MW14946   3.173   1.188   5.771  0.1109 -0.5476 -0.1483
 3940SOL     OW14947   1.457   1.802   4.167  0.3099 -0.1442  0.2306
 3940SOL    HW114948   1.451   1.800   4.262  0.8728 -1.5049  0.2443
 3940SOL    HW214949   1.387   1.862   4.140 -0.5549 -0.5974  1.4295
 3940SOL     MW14950   1.447   1.810   4.176  0.2713 -0.3763  0.3858
 3941SOL     OW14951   0.121   0.008   5.565  0.2893  0.1154  0.7378
 3941SOL    HW114952   0.195   0.018   5.505 -1.0654  1.4817 -0.7660
 3941SOL    HW214953   0.051  -0.028   5.511 -0.6311  0.3241  1.7679
 3941SOL     MW14954   0.121   0.005   5.550 -0.0019  0.3166  0.6776
 3942SOL     OW14955   5.336   2.400   0.032  0.3076 -0.5846  0.6409
 3942SOL    HW114956   5.370   2.384   0.120  0.9692 -0.4784  0.4091
 3942SOL    HW214957   5.398   2.463  -0.006 -0.6748  0.3398  0.5451
 3942SOL     MW14958   5.349   2.406   0.038  0.2666 -0.4528  0.5989
 3943SOL     OW14959   1.765   0.168   2.618 -0.2339 -0.1410 -0.3465
 3943SOL    HW114960   1.821   0.185   2.694 -0.0776 -1.4594 -0.1418
 3943SOL    HW214961   1.702   0.240   2.618  0.1008  0.1687  0.7168
 3943SOL     MW14962   1.764   0.179   2.628 -0.1711 -0.2701 -0.1841
 3944SOL     OW14963   5.120   2.853   3.760  0.1253 -0.0887 -0.0969
 3944SOL    HW114964   5.095   2.776   3.811 -1.0665  0.0069 -0.5268
 3944SOL    HW214965   5.127   2.821   3.670  3.3952 -0.5224  0.2369
 3944SOL     MW14966   5.118   2.839   3.755  0.3915 -0.1321 -0.1092
 3945SOL     OW14967   3.237   4.800   2.314  0.0146  0.1056 -0.1262
 3945SOL    HW114968   3.317   4.792   2.366 -0.4127 -0.1230  0.5062
 3945SOL    HW214969   3.256   4.754   2.233  0.7315  0.5641 -0.2293
 3945SOL     MW14970   3.250   4.793   2.310  0.0515  0.1354 -0.0587
 3946SOL     OW14971   4.266   2.868   0.147  0.1351 -0.3697 -0.2538
 3946SOL    HW114972   4.211   2.851   0.225  0.7272  0.3209  0.3148
 3946SOL    HW214973   4.305   2.953   0.163  2.5370 -1.4785  0.0208
 3946SOL     MW14974   4.264   2.876   0.159  0.5183 -0.4230 -0.1459
 3947SOL     OW14975   5.553   0.221   4.147 -0.2361 -0.0064 -0.9558
 3947SOL    HW114976   5.579   0.240   4.238  1.9652  1.2130 -1.7923
 3947SOL    HW214977   5.462   0.195   4.154  0.4522 -1.9646  1.8575
 3947SOL     MW14978   5.545   0.220   4.160  0.1340 -0.1010 -0.7024
 3948SOL     OW14979   2.522   3.123   3.778  0.5258 -0.2001  0.4174
 3948SOL    HW114980   2.513   3.067   3.855  1.1323  0.4528  0.9673
 3948SOL    HW214981   2.571   3.199   3.809 -0.0718  0.5188 -0.3850
 3948SOL     MW14982   2.527   3.126   3.791  0.5269 -0.0246  0.3850
 3949SOL     OW14983   3.836   0.693   4.964 -0.2133 -0.2435 -0.2363
 3949SOL    HW114984   3.826   0.598   4.969 -1.7650 -0.0360  0.8809
 3949SOL    HW214985   3.802   0.725   5.047 -1.9903  1.4683 -1.5659
 3949SOL     MW14986   3.831   0.685   4.975 -0.6392  0.0022 -0.2632
 3950SOL     OW14987   4.561   4.642   3.229  0.0318 -0.2631 -0.2612
 3950SOL    HW114988   4.530   4.656   3.140 -0.1938 -1.3528 -0.3666
 3950SOL    HW214989   4.542   4.723   3.275 -1.3912 -0.3008 -0.7703
 3950SOL     MW14990   4.555   4.654   3.223 -0.1798 -0.4072 -0.3397
 3951SOL     OW14991   3.740   0.617   3.262 -0.0366  0.1453 -0.1390
 3951SOL    HW114992   3.647   0.638   3.250  0.0474  1.4489  1.3614
 3951SOL    HW214993   3.786   0.692   3.224  0.3415  0.7251  1.4237
 3951SOL     MW14994   3.734   0.629   3.255  0.0224  0.3864  0.2532
 3952SOL     OW14995   3.249   4.545   0.671  0.2949 -0.3396  0.0674
 3952SOL    HW114996   3.264   4.462   0.716  0.2307 -1.7401 -2.4486
 3952SOL    HW214997   3.336   4.573   0.642 -0.0605 -1.1038 -1.7744
 3952SOL     MW14998   3.262   4.538   0.673  0.2413 -0.6166 -0.4904
 3953SOL     OW14999   1.428   3.474   3.406 -0.1924  0.4400  0.0387
 3953SOL    HW115000   1.494   3.405   3.409 -0.2590  0.4020  0.6337
 3953SOL    HW215001   1.347   3.429   3.382  0.2902  0.7129 -2.2338
 3953SOL     MW15002   1.426   3.460   3.403 -0.1391  0.4702 -0.1760
 3954SOL     OW15003   1.923   1.149   2.044  0.0063  0.8605  0.2811
 3954SOL    HW115004   1.868   1.075   2.069 -1.5070  0.9650 -2.5100
 3954SOL    HW215005   1.865   1.225   2.048  0.3791  1.2310 -0.9533
 3954SOL     MW15006   1.909   1.149   2.047 -0.1397  0.9212 -0.2344
 3955SOL     OW15007   2.043   0.915   5.704  0.5400 -0.3476 -0.2885
 3955SOL    HW115008   1.954   0.951   5.703  1.0341  0.9405 -2.5189
 3955SOL    HW215009   2.086   0.961   5.776 -0.1935  0.0764 -0.1100
 3955SOL     MW15010   2.037   0.926   5.713  0.5093 -0.1284 -0.5512
 3956SOL     OW15011   4.986   2.642   1.669 -0.2641  0.0225  0.5324
 3956SOL    HW115012   4.945   2.642   1.582  1.1536 -1.3591 -0.1475
 3956SOL    HW215013   5.018   2.732   1.679  0.8425 -0.1697 -1.0079
 3956SOL     MW15014   4.985   2.654   1.659  0.0591 -0.1791  0.2482
 3957SOL     OW15015   3.386   4.922   0.512  0.2735  0.3196 -0.4455
 3957SOL    HW115016   3.291   4.921   0.499  0.5938 -0.4385 -3.0944
 3957SOL    HW215017   3.406   5.012   0.536 -1.3209  0.0213  2.1845
 3957SOL     MW15018   3.377   4.933   0.513  0.1104  0.1841 -0.4479
 3958SOL     OW15019   5.610   2.040   0.412  0.3668 -0.6846  0.3813
 3958SOL    HW115020   5.627   2.103   0.482 -1.4517 -0.3015  0.4841
 3958SOL    HW215021   5.598   2.095   0.334  2.0181 -1.0895 -0.1852
 3958SOL     MW15022   5.611   2.055   0.411  0.3452 -0.6876  0.3220
 3959SOL     OW15023   2.160   4.998   2.330 -0.3338 -0.1320 -0.0332
 3959SOL    HW115024   2.137   4.971   2.242 -1.2146 -0.8658  0.4168
 3959SOL    HW215025   2.085   5.050   2.360 -0.1385 -0.0749  0.3688
 3959SOL     MW15026   2.147   5.001   2.323 -0.4215 -0.2184  0.0758
 3960SOL     OW15027   4.058   1.796   2.910 -0.0473  0.2468 -0.0549
 3960SOL    HW115028   3.964   1.805   2.926  0.0427  0.9812  0.0843
 3960SOL    HW215029   4.079   1.708   2.941 -0.9853 -0.5378 -1.5630
 3960SOL     MW15030   4.048   1.786   2.916 -0.1554  0.2403 -0.2301
 3961SOL     OW15031   0.142   5.936   0.807  0.5815 -0.0763 -0.2443
 3961SOL    HW115032   0.065   5.981   0.843 -0.5642 -1.8737 -0.3774
 3961SOL    HW215033   0.175   5.995   0.739  0.3747  1.5110  1.0020
 3961SOL     MW15034   0.136   5.950   0.803  0.4084 -0.1025 -0.1018
 3962SOL     OW15035   4.645   1.531   0.520 -0.6658  0.3077 -0.7810
 3962SOL    HW115036   4.685   1.495   0.598 -3.3613  0.1093  0.5932
 3962SOL    HW215037   4.579   1.592   0.553 -1.4570  0.6571 -2.8982
 3962SOL     MW15038   4.641   1.534   0.534 -1.1125  0.3270 -0.8762
 3963SOL     OW15039   5.510   5.479   3.080  0.2367  0.2218  0.7743
 3963SOL    HW115040   5.527   5.450   3.170  0.5408 -0.7969  0.3997
 3963SOL    HW215041   5.577   5.545   3.063 -0.2561  0.9225  1.5295
 3963SOL     MW15042   5.521   5.484   3.089  0.2127  0.1807  0.8230
 3964SOL     OW15043   0.274   1.865   1.869  0.5673 -0.3288  0.1956
 3964SOL    HW115044   0.186   1.900   1.853 -0.3705 -2.3256  0.8482
 3964SOL    HW215045   0.301   1.905   1.952 -0.5621 -1.2931  1.0293
 3964SOL     MW15046   0.266   1.875   1.878  0.3027 -0.7079  0.3860
 3965SOL     OW15047   3.932   2.341   4.156  0.3934  0.2890 -0.0732
 3965SOL    HW115048   3.879   2.270   4.120 -0.3031  0.6545  0.2101
 3965SOL    HW215049   3.984   2.299   4.225  0.3483 -0.0426 -0.2384
 3965SOL     MW15050   3.932   2.326   4.160  0.2985  0.2933 -0.0582
 3966SOL     OW15051   1.746   5.956   0.734  0.2123  0.0065 -0.4814
 3966SOL    HW115052   1.702   5.882   0.694 -0.4936 -0.5356  1.2294
 3966SOL    HW215053   1.707   6.033   0.693 -2.8569 -0.4334  1.4465
 3966SOL     MW15054   1.736   5.957   0.724 -0.2710 -0.1192 -0.0155
 3967SOL     OW15055   3.917   3.054   3.997  0.3728  0.4615 -0.1469
 3967SOL    HW115056   3.842   3.027   3.944  0.6425 -1.8192  0.5835
 3967SOL    HW215057   3.890   3.035   4.087  2.0172 -0.9194  0.0865
 3967SOL     MW15058   3.904   3.048   4.002  0.6180 -0.0069 -0.0234
 3968SOL     OW15059   5.962   2.438   2.522 -0.6943  0.3292  0.4672
 3968SOL    HW115060   6.008   2.493   2.584 -0.3242  0.2680  0.2455
 3968SOL    HW215061   5.975   2.480   2.437 -0.5726  0.0079  0.3235
 3968SOL     MW15062   5.969   2.450   2.519 -0.6318  0.2799  0.4203
 3969SOL     OW15063   0.993   0.786   3.532  0.0456 -0.1755  0.6772
 3969SOL    HW115064   0.981   0.719   3.599  0.7200  1.3406  2.3480
 3969SOL    HW215065   0.919   0.846   3.544 -0.7321 -0.7694 -1.0112
 3969SOL     MW15066   0.982   0.785   3.542  0.0324 -0.0574  0.6747
 3970SOL     OW15067   2.337   2.623   5.626 -0.2933 -0.2916  0.6122
 3970SOL    HW115068   2.302   2.623   5.715 -0.6740  1.4245  0.4851
 3970SOL    HW215069   2.278   2.680   5.577  0.0745 -0.9964 -0.6793
 3970SOL     MW15070   2.325   2.630   5.631 -0.2952 -0.1624  0.4301
 3971SOL     OW15071   0.923   2.000   1.963  0.0364  0.4824 -0.0000
 3971SOL    HW115072   1.011   1.962   1.952 -0.8819 -1.0320 -2.2920
 3971SOL    HW215073   0.939   2.094   1.971  1.7567  0.4232 -2.2526
 3971SOL     MW15074   0.937   2.007   1.963  0.1391  0.2809 -0.5817
 3972SOL     OW15075   4.847   2.584   2.937  0.8097 -0.7576  0.0829
 3972SOL    HW115076   4.786   2.596   3.010 -1.9924 -1.5003 -2.0356
 3972SOL    HW215077   4.823   2.498   2.900  2.9303 -0.9024 -1.0145
 3972SOL     MW15078   4.836   2.574   2.941  0.7224 -0.8712 -0.3288
 3973SOL     OW15079   4.265   1.535   5.321 -0.3035  0.3309 -0.1518
 3973SOL    HW115080   4.295   1.566   5.406 -0.1226  1.1563 -0.5123
 3973SOL    HW215081   4.220   1.453   5.340  1.1176 -0.3023  0.5504
 3973SOL     MW15082   4.263   1.528   5.334 -0.0982  0.3555 -0.1078
 3974SOL     OW15083   1.214   4.737   3.394  0.2920  0.2539  0.3450
 3974SOL    HW115084   1.193   4.764   3.305  1.0263 -0.0816  0.0631
 3974SOL    HW215085   1.267   4.658   3.383 -2.8378 -2.0417  1.1807
 3974SOL     MW15086   1.218   4.731   3.381 -0.0145 -0.0830  0.4160
 3975SOL     OW15087   1.439   0.948   1.513 -0.5721  0.0402  0.3070
 3975SOL    HW115088   1.371   0.954   1.580  0.0030 -0.2172  0.9221
 3975SOL    HW215089   1.521   0.963   1.561 -0.2611  1.2502 -0.5816
 3975SOL     MW15090   1.441   0.950   1.528 -0.4586  0.1621  0.2720
 3976SOL     OW15091   1.942   3.816   4.903 -0.1376  0.9305  0.0724
 3976SOL    HW115092   1.857   3.850   4.877 -0.2758 -0.6379 -1.6379
 3976SOL    HW215093   2.006   3.877   4.866 -0.4673  0.9497 -0.4667
 3976SOL     MW15094   1.940   3.828   4.895 -0.1974  0.7324 -0.2160
 3977SOL     OW15095   4.668   4.180   5.556  0.5237 -0.3700  0.3300
 3977SOL    HW115096   4.598   4.219   5.504 -0.7902  0.7484  2.8919
 3977SOL    HW215097   4.665   4.086   5.534 -1.1196 -0.1863 -0.2983
 3977SOL     MW15098   4.659   4.173   5.547  0.1450 -0.2036  0.5779
 3978SOL     OW15099   0.168   4.010   3.921  0.9169 -0.1270 -0.1334
 3978SOL    HW115100   0.230   3.937   3.916  0.3738 -0.6443  0.5352
 3978SOL    HW215101   0.165   4.034   4.013 -1.0831 -1.1911  0.1183
 3978SOL     MW15102   0.175   4.003   3.932  0.5914 -0.3295 -0.0155
 3979SOL     OW15103   2.752   1.956   1.610 -0.1017 -0.2863  0.3348
 3979SOL    HW115104   2.682   1.908   1.565 -1.4544 -0.2469  2.3125
 3979SOL    HW215105   2.758   2.039   1.563 -2.1473  0.1439  0.7503
 3979SOL     MW15106   2.744   1.961   1.598 -0.5367 -0.2261  0.6412
 3980SOL     OW15107   0.399   4.540   3.248 -0.1769 -0.3639 -0.3573
 3980SOL    HW115108   0.370   4.475   3.311  0.2515  0.4307  0.6742
 3980SOL    HW215109   0.395   4.495   3.163 -0.4836 -1.5204  0.2614
 3980SOL     MW15110   0.394   4.526   3.245 -0.1613 -0.4096 -0.1459
 3981SOL     OW15111   5.949   0.722   5.057 -0.1076 -0.2294  0.3106
 3981SOL    HW115112   6.022   0.709   4.997 -2.7337 -2.3999 -2.5969
 3981SOL    HW215113   5.956   0.650   5.119 -0.7085 -1.4688 -1.0247
 3981SOL     MW15114   5.959   0.711   5.057 -0.5207 -0.6660 -0.2332
 3982SOL     OW15115   1.056   4.984   0.418  0.1231  0.1170 -0.0918
 3982SOL    HW115116   1.008   5.058   0.380 -2.9848 -1.5445  0.4200
 3982SOL    HW215117   1.009   4.964   0.499  1.3011 -2.0374  0.1024
 3982SOL     MW15118   1.044   4.991   0.424 -0.1241 -0.3715 -0.0014
 3983SOL     OW15119   0.127   2.966   5.760  0.1538  0.5087 -0.3529
 3983SOL    HW115120   0.091   2.978   5.849  0.1522 -2.5024  0.0831
 3983SOL    HW215121   0.056   2.924   5.712  1.0267 -0.0505 -1.1403
 3983SOL     MW15122   0.113   2.962   5.766  0.2654  0.0517 -0.3972
 3984SOL     OW15123   5.770   0.925   3.481 -0.3624  0.0472  0.3475
 3984SOL    HW115124   5.726   0.935   3.397 -1.7109 -0.1472  1.0279
 3984SOL    HW215125   5.863   0.923   3.459 -0.6649  1.0370 -1.0317
 3984SOL     MW15126   5.777   0.926   3.468 -0.5736  0.1490  0.2582
 3985SOL     OW15127   4.234   3.901   1.058  0.6061  0.4969  0.3312
 3985SOL    HW115128   4.188   3.857   0.986 -0.3769  2.0324 -0.0121
 3985SOL    HW215129   4.234   3.994   1.033  0.1895  1.0559  2.3503
 3985SOL     MW15130   4.228   3.908   1.046  0.4268  0.7651  0.5456
 3986SOL     OW15131   5.213   4.081   0.108 -0.1291 -0.0258  0.0548
 3986SOL    HW115132   5.170   4.055   0.189 -0.3252 -2.2327 -0.7129
 3986SOL    HW215133   5.307   4.078   0.128 -0.2290  1.6561  0.8247
 3986SOL     MW15134   5.220   4.077   0.121 -0.1669 -0.0925  0.0551
 3987SOL     OW15135   5.142   2.481   2.078 -0.2484 -0.0233  0.3136
 3987SOL    HW115136   5.150   2.502   2.171  1.0732  0.3759  0.1306
 3987SOL    HW215137   5.048   2.486   2.060 -0.5520 -0.4186  1.6911
 3987SOL     MW15138   5.131   2.484   2.088 -0.1183 -0.0229  0.4663
 3988SOL     OW15139   4.174   4.037   3.729 -0.3845 -0.2463  0.4144
 3988SOL    HW115140   4.178   3.976   3.655 -1.6310 -1.3121  1.2027
 3988SOL    HW215141   4.241   4.102   3.710 -0.1595 -0.9454 -1.2679
 3988SOL     MW15142   4.183   4.038   3.717 -0.5150 -0.4725  0.2999
 3989SOL     OW15143   2.339   5.019   1.147  0.0009 -0.4863 -0.0536
 3989SOL    HW115144   2.314   5.112   1.146 -1.1575 -0.7785  0.4281
 3989SOL    HW215145   2.355   5.000   1.239 -0.7161 -1.0051 -0.0362
 3989SOL     MW15146   2.338   5.029   1.159 -0.2391 -0.5903  0.0103
 3990SOL     OW15147   2.211   3.662   0.661 -0.0021 -0.1021 -0.4858
 3990SOL    HW115148   2.281   3.683   0.600  0.3033 -1.9993 -0.8177
 3990SOL    HW215149   2.250   3.674   0.748 -0.5250  2.8805 -0.6105
 3990SOL     MW15150   2.225   3.666   0.665 -0.0300  0.0372 -0.5442
 3991SOL     OW15151   0.604   2.646   1.826  0.1648 -0.4404 -0.2364
 3991SOL    HW115152   0.693   2.617   1.848  0.3654  1.2471  1.2870
 3991SOL    HW215153   0.593   2.621   1.734  1.2543 -2.9492  0.2709
 3991SOL     MW15154   0.614   2.639   1.817  0.3300 -0.5455  0.0236
 3992SOL     OW15155   3.027   0.565   2.339  0.5418  0.2929 -0.4399
 3992SOL    HW115156   3.113   0.536   2.310  0.6901  1.6697 -1.4488
 3992SOL    HW215157   2.995   0.495   2.396  2.5016 -0.0196  0.2914
 3992SOL     MW15158   3.034   0.553   2.342  0.8118  0.4292 -0.4756
 3993SOL     OW15159   5.921   3.535   2.968  0.2129  0.2641 -0.0870
 3993SOL    HW115160   5.918   3.439   2.975  0.8662  0.3990  3.0164
 3993SOL    HW215161   5.849   3.564   3.024  2.3551  1.6357  2.0249
 3993SOL     MW15162   5.911   3.526   2.976  0.5703  0.4570  0.5805
 3994SOL     OW15163   1.218   1.456   1.328  0.0969  0.0921 -0.1400
 3994SOL    HW115164   1.218   1.402   1.249  0.5638  0.6965 -0.5597
 3994SOL    HW215165   1.127   1.479   1.342  0.0839  0.5373 -0.8960
 3994SOL     MW15166   1.207   1.452   1.319  0.1550  0.2264 -0.2906
 3995SOL     OW15167   4.622   3.831   0.674 -0.8575  0.0605  0.0287
 3995SOL    HW115168   4.664   3.903   0.722 -0.0078  0.1466 -0.8205
 3995SOL    HW215169   4.529   3.840   0.695 -0.5698  0.4384  1.1987
 3995SOL     MW15170   4.615   3.841   0.683 -0.7119  0.1197  0.0698
 3996SOL     OW15171   1.779   2.982   1.303  0.5125  0.0295 -0.4473
 3996SOL    HW115172   1.686   2.997   1.294  0.0619 -2.8722 -1.2787
 3996SOL    HW215173   1.812   3.059   1.348 -2.3719  0.8403  0.3650
 3996SOL     MW15174   1.772   2.994   1.308  0.0856 -0.2379 -0.4497
 3997SOL     OW15175   1.797   3.816   1.143  0.2712 -0.4205 -0.6335
 3997SOL    HW115176   1.869   3.799   1.205 -0.0489  0.2503 -0.0797
 3997SOL    HW215177   1.833   3.789   1.058  0.9419 -0.7322 -0.2624
 3997SOL     MW15178   1.811   3.810   1.140  0.3161 -0.3746 -0.5150
 3998SOL     OW15179   2.570   2.023   2.121 -0.2964  0.1185 -0.0678
 3998SOL    HW115180   2.534   1.939   2.148  0.4465  0.0165  0.6113
 3998SOL    HW215181   2.565   2.022   2.025 -0.6256 -0.5415 -0.0440
 3998SOL     MW15182   2.565   2.012   2.112 -0.2434  0.0207  0.0219
 3999SOL     OW15183   5.992   5.338   4.733  0.0755 -0.2261  0.1886
 3999SOL    HW115184   6.077   5.364   4.697 -0.0922 -0.7441 -0.6080
 3999SOL    HW215185   5.993   5.242   4.729 -0.6592 -0.2302 -0.1094
 3999SOL     MW15186   6.003   5.329   4.728 -0.0396 -0.2928  0.0486
 4000SOL     OW15187   2.527   4.034   3.428  0.1650 -0.1817 -0.7624
 4000SOL    HW115188   2.494   3.949   3.400  0.9648 -0.5598 -0.5731
 4000SOL    HW215189   2.527   4.030   3.523  0.7674 -0.1903 -0.7615
 4000SOL     MW15190   2.523   4.023   3.436  0.3445 -0.2308 -0.7379
 4001SOL     OW15191   0.446   2.344   4.427  0.2319  0.5049  0.1148
 4001SOL    HW115192   0.486   2.288   4.494 -0.1930 -0.2504 -0.2485
 4001SOL    HW215193   0.369   2.381   4.469  0.8955  1.3896  0.5825
 4001SOL     MW15194   0.441   2.341   4.441  0.2625  0.5214  0.1278
 4002SOL     OW15195   3.638   5.615   4.994 -0.1931 -0.9677 -0.3680
 4002SOL    HW115196   3.692   5.669   5.052 -0.8855 -0.5459 -0.1216
 4002SOL    HW215197   3.578   5.676   4.952  1.6740 -0.9171 -3.1557
 4002SOL     MW15198   3.637   5.629   4.996 -0.0427 -0.9074 -0.6928
 4003SOL     OW15199   4.399   1.636   0.910 -0.0519 -0.0337 -0.5571
 4003SOL    HW115200   4.439   1.550   0.924  2.1278  0.5448 -2.8212
 4003SOL    HW215201   4.464   1.698   0.942 -1.3447  0.8197  0.4718
 4003SOL     MW15202   4.412   1.633   0.916  0.0615  0.1496 -0.7153
 4004SOL     OW15203   0.614   0.473   0.473  0.9953  0.0930 -0.2471
 4004SOL    HW115204   0.620   0.386   0.513 -1.3539 -0.0007  0.0269
 4004SOL    HW215205   0.665   0.466   0.392  0.9832 -1.5012 -0.1472
 4004SOL     MW15206   0.621   0.461   0.468  0.6930 -0.1231 -0.1992
 4005SOL     OW15207   3.559   2.049   4.185  0.7191 -0.1648  0.5965
 4005SOL    HW115208   3.511   2.124   4.151  0.2946 -0.8567 -0.3780
 4005SOL    HW215209   3.524   1.974   4.136  2.3008 -0.7751  0.3724
 4005SOL     MW15210   3.548   2.049   4.174  0.8671 -0.3316  0.4430
 4006SOL     OW15211   4.156   3.876   2.447  0.0174 -0.3985 -0.0838
 4006SOL    HW115212   4.202   3.959   2.436 -1.0450  0.2580  0.4236
 4006SOL    HW215213   4.089   3.877   2.379 -2.4605  0.8635  2.2923
 4006SOL     MW15214   4.154   3.887   2.437 -0.4358 -0.1528  0.2854
 4007SOL     OW15215   4.361   3.080   3.000  0.2385 -0.6913  0.1406
 4007SOL    HW115216   4.283   3.136   3.004 -0.3642 -1.5394  0.6144
 4007SOL    HW215217   4.333   3.004   2.949  0.6239 -1.1951  0.6741
 4007SOL     MW15218   4.347   3.077   2.994  0.2108 -0.8645  0.2694
 4008SOL     OW15219   2.145   5.202   5.522 -0.1217  0.1193  0.2081
 4008SOL    HW115220   2.216   5.138   5.525  0.8904  1.2565  1.5745
 4008SOL    HW215221   2.188   5.285   5.542 -1.1358  1.4920 -2.9925
 4008SOL     MW15222   2.160   5.205   5.525 -0.1218  0.4406 -0.0267
 4009SOL     OW15223   4.582   3.821   2.375 -0.2093 -0.4797  0.3510
 4009SOL    HW115224   4.518   3.860   2.315 -2.0977 -2.5178  0.9791
 4009SOL    HW215225   4.568   3.868   2.458 -0.0450 -0.0816  0.1528
 4009SOL     MW15226   4.572   3.832   2.378 -0.4301 -0.6895  0.4063
 4010SOL     OW15227   5.518   0.530   5.113 -0.0248 -0.0236  0.2725
 4010SOL    HW115228   5.423   0.518   5.118 -0.1427  0.0032 -1.6597
 4010SOL    HW215229   5.534   0.557   5.023  1.7382  0.7802  0.8129
 4010SOL     MW15230   5.507   0.532   5.102  0.1860  0.0828  0.0944
 4011SOL     OW15231   2.324   4.118   1.378  0.5878 -0.6480 -0.5994
 4011SOL    HW115232   2.360   4.127   1.467  0.8798  0.1895 -0.7989
 4011SOL    HW215233   2.268   4.194   1.367 -1.1097 -1.8476 -0.3714
 4011SOL     MW15234   2.322   4.129   1.388  0.4079 -0.6943 -0.5958
 4012SOL     OW15235   3.346   0.756   4.189  0.5077  0.2908  0.0810
 4012SOL    HW115236   3.317   0.677   4.235 -0.6403  1.5510  1.5406
 4012SOL    HW215237   3.324   0.739   4.098  0.5441 -1.2007  0.3254
 4012SOL     MW15238   3.340   0.744   4.183  0.3650  0.2612  0.2990
 4013SOL     OW15239   4.530   5.255   1.125 -0.4155 -0.3291  0.3378
 4013SOL    HW115240   4.534   5.297   1.211  0.8865  1.0415 -0.3628
 4013SOL    HW215241   4.606   5.290   1.078 -0.5257 -1.8599 -1.0130
 4013SOL     MW15242   4.540   5.265   1.130 -0.2632 -0.3500  0.0750
 4014SOL     OW15243   0.132   1.316   3.641  0.2954 -0.1287 -0.0641
 4014SOL    HW115244   0.082   1.312   3.560 -1.7207  0.5578  1.1134
 4014SOL    HW215245   0.088   1.254   3.700  2.8978 -2.0830 -0.0898
 4014SOL     MW15246   0.120   1.308   3.638  0.3705 -0.2911  0.0834
 4015SOL     OW15247   2.745   5.832   2.434 -0.5875  0.5631  0.3166
 4015SOL    HW115248   2.732   5.799   2.345 -0.6832 -1.5951  1.0863
 4015SOL    HW215249   2.803   5.908   2.423  0.9734 -0.8142 -1.4308
 4015SOL     MW15250   2.751   5.837   2.421 -0.3996  0.1101  0.1915
 4016SOL     OW15251   2.077   1.829   2.715 -0.4315 -0.1169  0.8438
 4016SOL    HW115252   2.086   1.791   2.628 -0.4700 -0.6362  1.0644
 4016SOL    HW215253   2.049   1.756   2.771 -1.8786  0.5327  1.0039
 4016SOL     MW15254   2.075   1.815   2.711 -0.6216 -0.1001  0.8924
 4017SOL     OW15255   1.889   1.559   0.343  0.7246 -0.9307  0.2604
 4017SOL    HW115256   1.964   1.542   0.287  0.8268 -1.5223  0.5756
 4017SOL    HW215257   1.918   1.535   0.431  0.3910 -0.5105  0.4876
 4017SOL     MW15258   1.902   1.553   0.347  0.6951 -0.9526  0.3299
 4018SOL     OW15259   2.309   3.133   4.653  0.5228  0.0559  0.1749
 4018SOL    HW115260   2.327   3.216   4.609  1.5401  0.1814  0.8106
 4018SOL    HW215261   2.217   3.137   4.676  0.7253  1.3089  0.8027
 4018SOL     MW15262   2.300   3.144   4.650  0.6788  0.2322  0.3362
 4019SOL     OW15263   4.999   4.725   5.734  0.2366  0.6940  0.4746
 4019SOL    HW115264   5.055   4.650   5.714  0.3368  0.7975  0.3613
 4019SOL    HW215265   4.911   4.689   5.740 -0.1647  1.0438 -2.6367
 4019SOL     MW15266   4.995   4.711   5.733  0.1984  0.7515  0.0620
 4020SOL     OW15267   1.900   4.156   4.362 -0.3870  0.2118 -0.0987
 4020SOL    HW115268   1.904   4.086   4.428 -0.0009 -0.2330 -0.5841
 4020SOL    HW215269   1.843   4.121   4.293  0.2913  0.1241 -0.6257
 4020SOL     MW15270   1.894   4.142   4.361 -0.2507  0.1440 -0.2284
 4021SOL     OW15271   3.997   5.636   5.211  0.4102 -0.6069 -0.9406
 4021SOL    HW115272   3.943   5.565   5.247  0.9509  0.5287  2.3277
 4021SOL    HW215273   3.935   5.708   5.196  0.2332 -0.9828 -2.0667
 4021SOL     MW15274   3.982   5.636   5.214  0.4568 -0.5097 -0.6661
 4022SOL     OW15275   4.035   3.016   2.904 -0.0705 -0.0918 -0.3799
 4022SOL    HW115276   4.065   2.957   2.835 -0.2591  0.7359 -1.1708
 4022SOL    HW215277   3.982   2.961   2.962 -0.3580 -0.6675 -1.1855
 4022SOL     MW15278   4.032   3.001   2.903 -0.1311 -0.0596 -0.5841
 4023SOL     OW15279   3.138   3.978   4.995 -0.3244  0.5046  0.1632
 4023SOL    HW115280   3.114   3.966   5.087  1.2857  1.4116  0.7293
 4023SOL    HW215281   3.156   4.072   4.987 -0.4131  0.4254 -1.0737
 4023SOL     MW15282   3.137   3.988   5.006 -0.1297  0.6106  0.0772
 4024SOL     OW15283   0.942   0.893   1.951 -0.4231  0.2234 -0.1448
 4024SOL    HW115284   0.910   0.842   1.876  0.4129  1.3044 -1.2744
 4024SOL    HW215285   1.037   0.894   1.939 -0.4706  2.5415 -0.5008
 4024SOL     MW15286   0.950   0.886   1.940 -0.3221  0.6585 -0.3351
 4025SOL     OW15287   5.174   2.002   2.675  0.2229 -0.3451 -0.0349
 4025SOL    HW115288   5.186   2.018   2.582 -0.5556  2.7171  0.3351
 4025SOL    HW215289   5.091   1.955   2.681  0.6270 -1.1852 -0.9205
 4025SOL     MW15290   5.165   1.998   2.664  0.1745 -0.0606 -0.1011
 4026SOL     OW15291   3.547   2.772   4.727 -0.2471  0.6047 -0.2012
 4026SOL    HW115292   3.620   2.828   4.703  0.0225  0.8376  1.0997
 4026SOL    HW215293   3.519   2.804   4.813 -0.0246 -1.2865  0.6103
 4026SOL     MW15294   3.553   2.783   4.735 -0.1841  0.3924  0.0696
 4027SOL     OW15295   4.473   0.058   1.288 -0.6312 -0.0500  0.5754
 4027SOL    HW115296   4.433  -0.028   1.301  2.0836 -1.4042  0.4695
 4027SOL    HW215297   4.427   0.116   1.349 -0.6672 -2.2149  2.6612
 4027SOL     MW15298   4.462   0.055   1.298 -0.2880 -0.5005  0.8287
 4028SOL     OW15299   5.562   3.638   2.882  0.4038 -0.0971 -0.4100
 4028SOL    HW115300   5.604   3.712   2.927  1.4071 -0.2639 -1.0439
 4028SOL    HW215301   5.547   3.573   2.950  1.2881 -0.0749 -0.1879
 4028SOL     MW15302   5.566   3.639   2.896  0.6456 -0.1156 -0.4628
 4029SOL     OW15303   2.078   3.188   1.229  0.5399 -0.4493  0.1342
 4029SOL    HW115304   2.165   3.204   1.266  0.2780  1.3764  0.0283
 4029SOL    HW215305   2.018   3.191   1.303  0.2889  0.8437 -0.1060
 4029SOL     MW15306   2.082   3.191   1.243  0.4742 -0.0503  0.0898
 4030SOL     OW15307   1.998   4.182   0.336 -0.0280  0.6311  0.1310
 4030SOL    HW115308   1.939   4.220   0.271  1.5793  1.4361 -0.8819
 4030SOL    HW215309   2.012   4.092   0.305  0.6963  0.9975 -0.6085
 4030SOL     MW15310   1.992   4.175   0.323  0.2706  0.7811 -0.0934
 4031SOL     OW15311   1.671   2.362   0.642  0.0816 -0.5207 -0.1864
 4031SOL    HW115312   1.728   2.299   0.687  1.6582 -0.3816 -1.9404
 4031SOL    HW215313   1.691   2.351   0.549 -1.3035  0.9726 -0.6875
 4031SOL     MW15314   1.681   2.352   0.636  0.1061 -0.3116 -0.4752
 4032SOL     OW15315   5.905   5.138   2.066 -0.0649  0.4991  0.7276
 4032SOL    HW115316   5.907   5.234   2.060 -2.2429  0.5952  1.1389
 4032SOL    HW215317   5.884   5.120   2.157 -0.1464 -0.3503  0.5442
 4032SOL     MW15318   5.902   5.148   2.077 -0.3538  0.4029  0.7570
 4033SOL     OW15319   2.873   0.943   1.440  0.2899  0.0593 -0.5041
 4033SOL    HW115320   2.921   0.977   1.516 -1.6238  0.4661  0.5503
 4033SOL    HW215321   2.825   1.018   1.406 -1.8964 -0.9565  0.2464
 4033SOL     MW15322   2.873   0.957   1.446 -0.2348 -0.0187 -0.2731
 4034SOL     OW15323   5.361   2.880   5.832  0.1082 -0.5127 -0.2836
 4034SOL    HW115324   5.346   2.946   5.900  1.2278 -0.9729  0.4225
 4034SOL    HW215325   5.320   2.801   5.866 -0.2211 -0.4867 -0.6131
 4034SOL     MW15326   5.354   2.878   5.845  0.2093 -0.5682 -0.2356
 4035SOL     OW15327   0.818   3.756   3.996 -0.6215  0.5785  0.6264
 4035SOL    HW115328   0.839   3.810   3.920  0.3956  0.2175  0.6364
 4035SOL    HW215329   0.896   3.762   4.052 -0.1703 -1.4695  0.2836
 4035SOL     MW15330   0.831   3.764   3.993 -0.4336  0.2699  0.5836
 4036SOL     OW15331   4.651   5.056   1.314  0.4629 -0.6054  0.4807
 4036SOL    HW115332   4.667   5.077   1.222 -0.5065 -1.0881  0.2019
 4036SOL    HW215333   4.719   4.991   1.335 -0.0641 -1.3963 -0.2348
 4036SOL     MW15334   4.662   5.050   1.305  0.2704 -0.7687  0.3533
 4037SOL     OW15335   4.267   5.515   1.548 -0.4102  0.2395  0.0366
 4037SOL    HW115336   4.204   5.583   1.521 -0.1481 -0.5033 -2.5347
 4037SOL    HW215337   4.216   5.435   1.551 -0.2010  0.1318  0.7619
 4037SOL     MW15338   4.252   5.514   1.545 -0.3500  0.1307 -0.1997
 4038SOL     OW15339   3.777   5.625   4.722  0.0602  0.5525  0.0269
 4038SOL    HW115340   3.711   5.592   4.662 -1.1153  2.7171  0.0734
 4038SOL    HW215341   3.743   5.603   4.809  0.1050  0.3971  0.0046
 4038SOL     MW15342   3.764   5.618   4.726 -0.0844  0.8092  0.0296
 4039SOL     OW15343   5.393   4.758   0.027 -0.1957  0.3016  0.3765
 4039SOL    HW115344   5.386   4.742   0.121 -1.0558  0.0300  0.2683
 4039SOL    HW215345   5.311   4.802   0.004 -0.2477 -0.1637 -0.3495
 4039SOL     MW15346   5.381   4.762   0.036 -0.3128  0.2069  0.2697
 4040SOL     OW15347   0.667   3.980   3.132  0.2457  0.8136  0.5381
 4040SOL    HW115348   0.734   3.984   3.200  1.9997 -0.0065 -1.0961
 4040SOL    HW215349   0.713   3.947   3.055 -2.1671 -0.2467 -0.4904
 4040SOL     MW15350   0.681   3.976   3.131  0.1613  0.5727  0.1972
 4041SOL     OW15351   3.977   3.771   2.681 -0.2300  0.3456  0.1835
 4041SOL    HW115352   3.963   3.803   2.770 -0.3602  0.9393 -0.0460
 4041SOL    HW215353   4.060   3.809   2.654 -0.0545 -0.0589  0.1512
 4041SOL     MW15354   3.986   3.780   2.689 -0.2241  0.3700  0.1500
 4042SOL     OW15355   3.445   3.147   4.951 -0.4024  0.1553  0.3288
 4042SOL    HW115356   3.538   3.165   4.969 -0.2083 -0.4959 -0.0065
 4042SOL    HW215357   3.440   3.145   4.856 -0.6305 -0.4786  0.3531
 4042SOL     MW15358   3.457   3.149   4.941 -0.4070 -0.0093  0.2890
 4043SOL     OW15359   0.249   2.995   0.415  0.0568 -0.2061  0.1209
 4043SOL    HW115360   0.210   2.978   0.501 -1.1300  0.1297 -0.3342
 4043SOL    HW215361   0.273   3.087   0.418  0.1087 -0.2202  0.1310
 4043SOL     MW15362   0.247   3.004   0.427 -0.0885 -0.1652  0.0640
 4044SOL     OW15363   5.620   0.131   1.837 -0.0860 -0.7870 -0.1199
 4044SOL    HW115364   5.671   0.060   1.797  1.3018  0.4078 -0.4921
 4044SOL    HW215365   5.594   0.186   1.763 -0.4479 -0.4463  0.2631
 4044SOL     MW15366   5.623   0.129   1.822  0.0453 -0.5904 -0.1186
 4045SOL     OW15367   1.328   5.038   5.104  0.0573 -0.0609 -0.1458
 4045SOL    HW115368   1.413   5.050   5.146 -0.6540  1.4009  0.8985
 4045SOL    HW215369   1.330   5.098   5.029 -0.0229 -0.1171 -0.1936
 4045SOL     MW15370   1.339   5.047   5.100 -0.0441  0.1192 -0.0181
 4046SOL     OW15371   2.007   1.785   4.020  0.3427  0.4333 -0.6799
 4046SOL    HW115372   2.053   1.708   3.986 -0.6986  0.1958 -1.5790
 4046SOL    HW215373   1.927   1.750   4.059  1.2379  0.7748  1.4992
 4046SOL     MW15374   2.003   1.771   4.020  0.3242  0.4466 -0.5164
 4047SOL     OW15375   4.660   5.450   3.741  0.0700  0.5786 -0.3952
 4047SOL    HW115376   4.578   5.479   3.781  0.0348 -0.9965  0.7062
 4047SOL    HW215377   4.639   5.364   3.705  1.4244 -0.1266  0.4929
 4047SOL     MW15378   4.647   5.443   3.741  0.2389  0.2866 -0.1407
 4048SOL     OW15379   5.303   2.738   3.993 -0.6294  0.1192 -0.7348
 4048SOL    HW115380   5.211   2.714   4.000 -0.5873 -0.6155 -2.5622
 4048SOL    HW215381   5.346   2.659   3.960  0.5432  0.6975 -0.6280
 4048SOL     MW15382   5.297   2.725   3.990 -0.4735  0.0997 -0.9549
 4049SOL     OW15383   5.010   1.454   1.030  0.3023  0.4318  0.0517
 4049SOL    HW115384   5.020   1.471   0.936 -0.9390 -0.9168 -0.3494
 4049SOL    HW215385   5.091   1.409   1.054  0.1262 -0.2650 -0.6330
 4049SOL     MW15386   5.022   1.450   1.021  0.1211  0.1700 -0.0874
 4050SOL     OW15387   4.176   3.555   4.636 -0.3019  0.3370  0.1462
 4050SOL    HW115388   4.152   3.594   4.552  0.8167 -0.0761 -0.3897
 4050SOL    HW215389   4.211   3.628   4.687  2.5906 -0.0187 -1.1642
 4050SOL     MW15390   4.178   3.569   4.632  0.2117  0.2384 -0.0906
 4051SOL     OW15391   4.323   5.909   0.627 -0.0582  0.3349 -0.3621
 4051SOL    HW115392   4.320   5.885   0.534 -0.7773  2.2050 -0.8521
 4051SOL    HW215393   4.379   5.986   0.630 -0.5492  0.6659  0.6638
 4051SOL     MW15394   4.330   5.916   0.616 -0.2136  0.6166 -0.2935
 4052SOL     OW15395   1.048   4.585   5.553 -0.5104  0.2169 -0.7665
 4052SOL    HW115396   1.029   4.549   5.467  0.5802 -1.2219 -0.4287
 4052SOL    HW215397   1.135   4.625   5.544 -0.3963  0.0730 -0.3354
 4052SOL     MW15398   1.057   4.586   5.541 -0.3561  0.0143 -0.6680
 4053SOL     OW15399   5.630   5.218   5.657 -0.1223  0.4572  0.1330
 4053SOL    HW115400   5.715   5.256   5.634 -0.8362  1.7336 -0.4330
 4053SOL    HW215401   5.622   5.142   5.600  0.7983  0.1050  0.4490
 4053SOL     MW15402   5.640   5.213   5.647 -0.0958  0.5751  0.1011
 4054SOL     OW15403   4.628   3.552   4.581 -0.3295 -0.4860 -0.0180
 4054SOL    HW115404   4.557   3.498   4.547 -1.0817  0.9318 -0.7403
 4054SOL    HW215405   4.592   3.640   4.584  0.9662  0.0308  0.8965
 4054SOL     MW15406   4.614   3.556   4.577 -0.2599 -0.2384  0.0076
 4055SOL     OW15407   5.434   4.286   4.595 -0.3248 -0.2990 -0.7459
 4055SOL    HW115408   5.429   4.311   4.503 -1.5535  0.3247 -0.5187
 4055SOL    HW215409   5.351   4.242   4.612 -0.1721 -0.2590  0.1016
 4055SOL     MW15410   5.423   4.284   4.585 -0.4625 -0.2141 -0.6089
 4056SOL     OW15411   2.655   1.537   5.160 -0.4876  0.2698  0.1698
 4056SOL    HW115412   2.731   1.562   5.108 -0.2495 -1.3563 -0.2870
 4056SOL    HW215413   2.692   1.512   5.245 -0.3904 -1.5051 -0.3813
 4056SOL     MW15414   2.670   1.537   5.164 -0.4447 -0.1655  0.0405
 4057SOL     OW15415   0.668   0.472   1.641  0.1728  1.0322  0.0170
 4057SOL    HW115416   0.679   0.388   1.688 -0.0955  1.5526  1.0312
 4057SOL    HW215417   0.607   0.521   1.696 -0.2634  1.6033 -0.9768
 4057SOL     MW15418   0.662   0.467   1.654  0.0826  1.1719  0.0197
 4058SOL     OW15419   4.947   5.332   2.031  0.1440  0.6262  0.6647
 4058SOL    HW115420   5.043   5.330   2.025  0.0757 -0.3929 -0.2252
 4058SOL    HW215421   4.927   5.285   2.111  0.2188 -2.9907 -1.3486
 4058SOL     MW15422   4.957   5.326   2.040  0.1450  0.0324  0.2933
 4059SOL     OW15423   3.382   5.394   4.325  0.0716 -0.0794 -0.4332
 4059SOL    HW115424   3.313   5.328   4.317 -1.4548  1.7843 -3.8755
 4059SOL    HW215425   3.347   5.458   4.387  1.1111 -1.8893  2.0917
 4059SOL     MW15426   3.369   5.393   4.332  0.0095 -0.0730 -0.5507
 4060SOL     OW15427   4.267   1.162   0.031 -0.3753  0.2410 -0.4374
 4060SOL    HW115428   4.245   1.202   0.115 -1.8287  1.0623 -1.1883
 4060SOL    HW215429   4.262   1.234  -0.032  1.8956 -0.1061 -1.0654
 4060SOL     MW15430   4.263   1.177   0.033 -0.2704  0.3017 -0.6139
 4061SOL     OW15431   1.413   0.833   2.249  0.0964  0.6373 -0.0619
 4061SOL    HW115432   1.341   0.897   2.255  0.1425  0.6728  0.1263
 4061SOL    HW215433   1.405   0.782   2.329 -2.2755 -2.0592 -1.9343
 4061SOL     MW15434   1.403   0.835   2.260 -0.2013  0.2967 -0.2775
 4062SOL     OW15435   2.882   2.154   4.065 -0.0716 -0.2198 -0.1348
 4062SOL    HW115436   2.889   2.247   4.044 -0.4453 -0.2450 -0.3797
 4062SOL    HW215437   2.806   2.148   4.123  1.1004 -0.1175  1.4534
 4062SOL     MW15438   2.873   2.165   4.070  0.0308 -0.2096  0.0377
 4063SOL     OW15439   5.549   4.617   3.553  0.2257  0.2479 -0.3849
 4063SOL    HW115440   5.561   4.525   3.528  2.2517  0.7174 -1.3068
 4063SOL    HW215441   5.494   4.614   3.631 -1.0181 -1.6540 -1.2850
 4063SOL     MW15442   5.544   4.605   3.559  0.3262  0.0648 -0.6182
 4064SOL     OW15443   3.566   1.434   2.064 -0.6576 -0.4998 -0.2239
 4064SOL    HW115444   3.571   1.439   1.968  0.3552  0.0257 -0.1572
 4064SOL    HW215445   3.537   1.521   2.091 -1.6490 -0.8709 -0.0909
 4064SOL     MW15446   3.563   1.446   2.055 -0.6549 -0.4802 -0.1981
 4065SOL     OW15447   0.150   2.682   5.208  0.9849 -0.2349 -0.2122
 4065SOL    HW115448   0.215   2.659   5.141 -0.9183 -0.7346 -1.9409
 4065SOL    HW215449   0.143   2.604   5.262  0.8312 -0.6753 -0.8569
 4065SOL     MW15450   0.158   2.669   5.206  0.7216 -0.3555 -0.5159
 4066SOL     OW15451   4.674   1.994   5.200 -0.0436  0.0979 -0.1472
 4066SOL    HW115452   4.710   1.907   5.216 -0.4372 -0.1672 -0.7007
 4066SOL    HW215453   4.699   2.044   5.277  0.9169 -0.2697 -0.2108
 4066SOL     MW15454   4.682   1.989   5.212  0.0291  0.0168 -0.2260
 4067SOL     OW15455   0.805   1.242   0.613 -0.3646 -0.0107  0.6957
 4067SOL    HW115456   0.735   1.191   0.653 -0.8465  0.3513  0.3189
 4067SOL    HW215457   0.876   1.240   0.677 -0.4863 -0.9060  0.8055
 4067SOL     MW15458   0.805   1.236   0.626 -0.4419 -0.0790  0.6616
 4068SOL     OW15459   4.700   4.545   2.597  0.0562 -0.3234 -0.3392
 4068SOL    HW115460   4.772   4.608   2.606 -0.9319  0.7314  0.3092
 4068SOL    HW215461   4.661   4.540   2.684 -2.1382  0.9225 -1.1996
 4068SOL     MW15462   4.704   4.553   2.609 -0.3510 -0.0291 -0.3664
 4069SOL     OW15463   4.886   1.988   1.166  0.6548 -0.6051  0.3759
 4069SOL    HW115464   4.818   2.026   1.109 -0.9727 -0.3848  2.3969
 4069SOL    HW215465   4.885   1.895   1.145 -0.8951 -0.7382  0.9997
 4069SOL     MW15466   4.877   1.981   1.156  0.2480 -0.5939  0.7144
 4070SOL     OW15467   3.112   5.015   0.738  0.2495 -0.0322  0.1215
 4070SOL    HW115468   3.074   5.030   0.825  1.1659  1.5405  0.2651
 4070SOL    HW215469   3.183   5.078   0.731 -0.8568  1.0369 -2.4196
 4070SOL     MW15470   3.116   5.025   0.748  0.2251  0.3061 -0.1854
 4071SOL     OW15471   4.459   4.307   2.361 -0.6118 -0.2463 -0.0182
 4071SOL    HW115472   4.446   4.358   2.440  0.8485  1.7690 -1.0450
 4071SOL    HW215473   4.428   4.364   2.290 -0.7638 -1.5432 -1.0169
 4071SOL     MW15474   4.453   4.321   2.362 -0.4444 -0.1545 -0.2775
 4072SOL     OW15475   4.919   3.282   1.438 -0.1288 -0.5072  0.8749
 4072SOL    HW115476   4.980   3.239   1.498 -0.2910 -0.4657  1.0690
 4072SOL    HW215477   4.832   3.257   1.470 -0.2043 -1.7280 -0.2378
 4072SOL     MW15478   4.916   3.273   1.450 -0.1593 -0.6580  0.7573
 4073SOL     OW15479   4.875   5.207   5.661  0.2295 -0.6149 -0.0348
 4073SOL    HW115480   4.853   5.166   5.577  1.8149 -1.1471 -0.2225
 4073SOL    HW215481   4.847   5.144   5.727  2.3605 -1.8969 -0.3119
 4073SOL     MW15482   4.869   5.194   5.658  0.7052 -0.8473 -0.0949
 4074SOL     OW15483   2.602   5.787   3.338  0.2928 -0.6583  0.3135
 4074SOL    HW115484   2.644   5.746   3.262 -1.1595 -1.3596 -0.1534
 4074SOL    HW215485   2.668   5.785   3.407  0.9287 -2.0069 -0.3076
 4074SOL     MW15486   2.616   5.781   3.337  0.1881 -0.9203  0.1740
 4075SOL     OW15487   5.431   0.731   3.306 -0.2098 -0.5656  0.5542
 4075SOL    HW115488   5.436   0.663   3.239 -0.8515  0.0654 -0.1437
 4075SOL    HW215489   5.341   0.763   3.301 -0.7436 -1.6352  2.8495
 4075SOL     MW15490   5.420   0.726   3.297 -0.3600 -0.6218  0.7586
 4076SOL     OW15491   2.076   4.222   0.724  0.7430 -0.1022 -0.0152
 4076SOL    HW115492   2.168   4.199   0.713  0.9132  1.4525 -2.0010
 4076SOL    HW215493   2.030   4.138   0.717  1.7967 -0.5652 -1.6332
 4076SOL     MW15494   2.082   4.208   0.722  0.8996  0.0377 -0.4765
 4077SOL     OW15495   3.475   2.041   3.798 -1.0424  0.1813 -0.1931
 4077SOL    HW115496   3.467   2.132   3.827 -0.2414  0.1415  0.1741
 4077SOL    HW215497   3.416   2.034   3.722 -1.3232  0.9254 -0.0443
 4077SOL     MW15498   3.466   2.052   3.792 -0.9756  0.2716 -0.1271
 4078SOL     OW15499   3.253   3.654   0.520 -0.4624  0.3030 -0.4163
 4078SOL    HW115500   3.318   3.667   0.451  3.3520 -1.3965  2.6072
 4078SOL    HW215501   3.247   3.739   0.564  2.1467 -0.2558  1.1496
 4078SOL     MW15502   3.261   3.666   0.517  0.3595  0.0138  0.1711
 4079SOL     OW15503   1.186   0.255   1.185 -0.4891 -0.5754 -0.4086
 4079SOL    HW115504   1.165   0.196   1.112  0.5822  1.0579 -2.1013
 4079SOL    HW215505   1.112   0.315   1.190  1.3034  1.9750 -3.0111
 4079SOL     MW15506   1.174   0.255   1.176 -0.1224 -0.0398 -0.9584
 4080SOL     OW15507   2.992   2.829   4.305 -0.4251  0.3461  0.0191
 4080SOL    HW115508   3.034   2.851   4.221 -0.6137  1.3635  0.1800
 4080SOL    HW215509   2.988   2.734   4.305 -1.5562  0.3604 -1.6888
 4080SOL     MW15510   2.997   2.820   4.294 -0.5944  0.4783 -0.1788
 4081SOL     OW15511   3.242   1.679   2.870 -0.0528  0.2051  0.0214
 4081SOL    HW115512   3.249   1.748   2.936  0.3321  0.4561 -0.2769
 4081SOL    HW215513   3.173   1.709   2.811 -0.9163 -0.3719  0.7194
 4081SOL     MW15514   3.234   1.692   2.871 -0.1137  0.1633  0.0725
 4082SOL     OW15515   2.701   5.196   0.098  0.2180  0.0352  0.4709
 4082SOL    HW115516   2.726   5.200   0.190 -1.4670 -0.4099  0.9584
 4082SOL    HW215517   2.768   5.140   0.058  1.5277  1.0350  1.2041
 4082SOL     MW15518   2.713   5.189   0.104  0.1702  0.1063  0.6271
 4083SOL     OW15519   1.330   1.837   2.717  0.0262 -0.0094 -0.0388
 4083SOL    HW115520   1.260   1.811   2.657 -1.8401  0.2233  1.9714
 4083SOL    HW215521   1.349   1.758   2.768 -0.7470  0.6557  1.3114
 4083SOL     MW15522   1.324   1.824   2.716 -0.3116  0.1057  0.3912
 4084SOL     OW15523   3.884   5.440   4.951 -0.3203  0.4790 -0.4560
 4084SOL    HW115524   3.949   5.474   4.890 -0.3411  1.5767  0.1354
 4084SOL    HW215525   3.936   5.398   5.020 -0.2766  0.0773 -0.7296
 4084SOL     MW15526   3.899   5.439   4.952 -0.3173  0.5679 -0.4153
 4085SOL     OW15527   1.224   0.646   0.058 -0.0306 -0.5452 -0.5113
 4085SOL    HW115528   1.316   0.671   0.049  0.6808 -2.4122  1.3094
 4085SOL    HW215529   1.183   0.721   0.101  1.0590 -0.4847  0.4536
 4085SOL     MW15530   1.230   0.659   0.062  0.2000 -0.7764 -0.1547
 4086SOL     OW15531   3.819   5.661   1.467  0.2365  0.1801 -0.0916
 4086SOL    HW115532   3.784   5.600   1.402 -0.5067 -0.8459  1.2403
 4086SOL    HW215533   3.798   5.747   1.432 -1.8817 -0.3869 -0.3085
 4086SOL     MW15534   3.812   5.664   1.454 -0.1297 -0.0243  0.0511
 4087SOL     OW15535   3.979   1.665   2.334  0.7004 -0.2863 -0.5112
 4087SOL    HW115536   3.934   1.631   2.257  0.5929 -0.0310 -0.5622
 4087SOL    HW215537   4.059   1.613   2.341 -0.4278 -1.9455  0.5818
 4087SOL     MW15538   3.983   1.654   2.325  0.5424 -0.4661 -0.3779
 4088SOL     OW15539   3.860   4.270   3.395  0.4357  0.6531  0.1057
 4088SOL    HW115540   3.844   4.243   3.305  1.6519 -0.2410  0.1370
 4088SOL    HW215541   3.843   4.364   3.396 -1.8703  0.2664 -0.4944
 4088SOL     MW15542   3.856   4.278   3.384  0.2961  0.4888  0.0329
 4089SOL     OW15543   3.210   5.693   1.857  0.6219  0.0663  0.4886
 4089SOL    HW115544   3.151   5.709   1.930 -0.7537  0.9314 -0.7807
 4089SOL    HW215545   3.287   5.747   1.875  0.5418 -0.1791  1.5759
 4089SOL     MW15546   3.213   5.702   1.868  0.4356  0.1454  0.4653
 4090SOL     OW15547   0.767   2.402   5.036 -0.1621 -0.1395 -0.0749
 4090SOL    HW115548   0.797   2.406   5.127 -0.0019 -1.1130 -0.0745
 4090SOL    HW215549   0.696   2.338   5.038  1.0404 -1.5383 -0.9418
 4090SOL     MW15550   0.762   2.394   5.048  0.0123 -0.4432 -0.1855
 4091SOL     OW15551   2.519   1.638   1.215  0.6475  0.5789 -0.5050
 4091SOL    HW115552   2.488   1.586   1.140 -2.7358  0.8271  0.6154
 4091SOL    HW215553   2.501   1.729   1.191 -1.4020  0.5975  0.9506
 4091SOL     MW15554   2.512   1.643   1.202 -0.0484  0.6130 -0.1754
 4092SOL     OW15555   3.238   0.991   3.570  0.7582 -0.6516  0.2807
 4092SOL    HW115556   3.276   0.992   3.658  0.4685 -1.1145  0.4106
 4092SOL    HW215557   3.163   0.932   3.577  0.9599 -0.9858 -0.3732
 4092SOL     MW15558   3.234   0.984   3.582  0.7470 -0.7536  0.2134
 4093SOL     OW15559   5.475   4.508   0.600 -0.2345 -0.3405  0.6798
 4093SOL    HW115560   5.410   4.512   0.669  0.3194 -0.7776  1.2365
 4093SOL    HW215561   5.539   4.576   0.623 -0.4552  0.0431  0.1740
 4093SOL     MW15562   5.475   4.517   0.612 -0.1917 -0.3476  0.6863
 4094SOL     OW15563   4.960   1.018   3.965 -0.6172 -0.2544 -0.0536
 4094SOL    HW115564   4.934   1.018   4.058 -0.9736 -1.8294 -0.1372
 4094SOL    HW215565   5.053   0.997   3.967 -0.7968 -1.0804 -0.0807
 4094SOL     MW15566   4.969   1.015   3.977 -0.6857 -0.5618 -0.0675
 4095SOL     OW15567   1.031   5.799   1.282  0.4554  0.6488 -0.6657
 4095SOL    HW115568   1.027   5.894   1.276 -0.3271  0.7291  0.8683
 4095SOL    HW215569   0.953   5.774   1.332  1.2454 -0.7056 -0.0646
 4095SOL     MW15570   1.021   5.808   1.288  0.4563  0.4854 -0.3923
 4096SOL     OW15571   3.816   1.300   4.683 -0.4368  0.3922  0.4495
 4096SOL    HW115572   3.785   1.266   4.599  0.5449 -0.5295  0.4522
 4096SOL    HW215573   3.866   1.379   4.660 -0.2724  0.2095  0.1693
 4096SOL     MW15574   3.819   1.306   4.669 -0.2902  0.2507  0.4144
 4097SOL     OW15575   3.048   5.840   3.101 -0.4970  0.6422  0.6606
 4097SOL    HW115576   3.112   5.906   3.128 -0.0891  0.1164  0.9664
 4097SOL    HW215577   3.099   5.762   3.082 -0.9749  0.4309  0.2106
 4097SOL     MW15578   3.063   5.839   3.102 -0.5057  0.5479  0.6421
 4098SOL     OW15579   0.499   1.086   1.407  0.4562 -0.1843  0.4897
 4098SOL    HW115580   0.417   1.080   1.455  0.3107 -0.8921  0.1482
 4098SOL    HW215581   0.522   0.996   1.385  2.4614 -0.1921  2.4660
 4098SOL     MW15582   0.491   1.074   1.410  0.6943 -0.2759  0.6989
 4099SOL     OW15583   0.297   0.122   3.929  0.3836  0.0987 -0.4236
 4099SOL    HW115584   0.284   0.215   3.911 -0.5543  0.6467  2.7378
 4099SOL    HW215585   0.217   0.080   3.896  0.7228  0.3956 -1.6743
 4099SOL     MW15586   0.285   0.128   3.922  0.3070  0.2069 -0.1791
 4100SOL     OW15587   2.870   4.306   4.534 -0.0953  0.7207 -0.1910
 4100SOL    HW115588   2.931   4.246   4.578  0.3843  1.5288  0.2500
 4100SOL    HW215589   2.912   4.392   4.540 -1.5223  1.3747  0.5833
 4100SOL     MW15590   2.884   4.309   4.540 -0.2167  0.9084 -0.0358
 4101SOL     OW15591   2.038   2.870   3.822 -0.0636 -0.3535  0.1389
 4101SOL    HW115592   2.093   2.792   3.822  1.7914  0.8475  4.2418
 4101SOL    HW215593   1.990   2.866   3.905 -1.2784  1.9336 -0.4045
 4101SOL     MW15594   2.039   2.860   3.833  0.0184  0.0930  0.5949
 4102SOL     OW15595   1.949   3.719   2.949  0.3135 -0.0813  0.8095
 4102SOL    HW115596   1.992   3.634   2.945 -2.6675 -1.6579  0.8188
 4102SOL    HW215597   1.913   3.724   3.038 -1.0920  0.3510  0.2407
 4102SOL     MW15598   1.950   3.709   2.960 -0.2482 -0.2279  0.7381
 4103SOL     OW15599   0.033   2.728   0.512  0.1879  0.8642 -0.1528
 4103SOL    HW115600   0.053   2.685   0.429  0.6433  1.3852 -0.3172
 4103SOL    HW215601  -0.018   2.663   0.561 -0.9808  0.9308 -1.2433
 4103SOL     MW15602   0.029   2.714   0.507  0.0966  0.9394 -0.3134
 4104SOL     OW15603   3.915   0.197   1.757 -0.0099 -0.4825 -0.0435
 4104SOL    HW115604   3.929   0.130   1.690  1.0041 -2.1271  1.7442
 4104SOL    HW215605   3.993   0.191   1.813  0.5538  2.8505 -0.3563
 4104SOL     MW15606   3.927   0.188   1.756  0.1917 -0.2664  0.1453
 4105SOL     OW15607   3.486   3.602   2.117  0.2850  0.7244 -0.9499
 4105SOL    HW115608   3.561   3.628   2.063  1.0889 -2.4653 -1.4606
 4105SOL    HW215609   3.416   3.583   2.054  0.3941 -0.4165 -0.7402
 4105SOL     MW15610   3.487   3.603   2.102  0.4020  0.1700 -0.9887
 4106SOL     OW15611   4.801   5.284   1.403  0.5462 -0.1066 -0.2068
 4106SOL    HW115612   4.729   5.221   1.399 -0.2953  0.8952 -1.5511
 4106SOL    HW215613   4.764   5.358   1.451 -0.2360  1.4713 -3.0792
 4106SOL     MW15614   4.787   5.285   1.409  0.3386  0.2236 -0.7465
 4107SOL     OW15615   1.498   5.512   0.629  0.3581 -0.4716  0.2651
 4107SOL    HW115616   1.476   5.511   0.536  0.4133  0.7906  0.2265
 4107SOL    HW215617   1.426   5.465   0.671 -1.1029  1.3724 -0.1257
 4107SOL     MW15618   1.486   5.506   0.622  0.1781 -0.0739  0.2102
 4108SOL     OW15619   2.982   1.317   5.597  0.0915 -0.3616  0.4715
 4108SOL    HW115620   3.046   1.277   5.657  1.2595 -1.2842 -1.3473
 4108SOL    HW215621   3.015   1.406   5.584  1.4171 -1.0301 -0.9636
 4108SOL     MW15622   2.995   1.323   5.603  0.4106 -0.5654  0.0548
 4109SOL     OW15623   1.802   4.925   3.682 -0.0622 -0.1164  0.0747
 4109SOL    HW115624   1.725   4.904   3.735  0.3462  0.4568  0.9196
 4109SOL    HW215625   1.824   4.843   3.638 -1.9133  0.0343 -1.1845
 4109SOL     MW15626   1.795   4.912   3.683 -0.2469 -0.0238  0.0215
 4110SOL     OW15627   3.295   2.892   2.267  0.1293 -0.7032 -0.3318
 4110SOL    HW115628   3.351   2.862   2.196  0.3761 -1.4431  0.1679
 4110SOL    HW215629   3.206   2.867   2.242  0.0598  0.1440 -0.9537
 4110SOL     MW15630   3.291   2.885   2.255  0.1519 -0.6893 -0.3474
 4111SOL     OW15631   4.795   1.436   0.728  0.1657  0.0251 -0.0551
 4111SOL    HW115632   4.769   1.401   0.813 -0.4867  0.6368  0.0030
 4111SOL    HW215633   4.785   1.361   0.668  0.5368 -0.3788  0.3817
 4111SOL     MW15634   4.790   1.422   0.731  0.1292  0.0517  0.0083
 4112SOL     OW15635   0.533   2.245   4.995  0.2797  0.4602 -0.3436
 4112SOL    HW115636   0.468   2.182   5.025  2.2873 -0.3848  2.4701
 4112SOL    HW215637   0.552   2.218   4.905 -2.2892 -0.0400 -0.7769
 4112SOL     MW15638   0.527   2.233   4.988  0.2078  0.2878 -0.0386
 4113SOL     OW15639   4.686   5.016   4.047  0.4199  0.1338  0.1848
 4113SOL    HW115640   4.697   4.923   4.069  1.6291  0.4452  0.9794
 4113SOL    HW215641   4.596   5.036   4.071  0.5108 -0.5446  1.1300
 4113SOL     MW15642   4.676   5.006   4.053  0.5860  0.0868  0.4077
 4114SOL     OW15643   3.530   5.474   2.975 -0.3994  0.2465 -0.2070
 4114SOL    HW115644   3.487   5.413   3.035  0.0504 -0.0687 -0.2059
 4114SOL    HW215645   3.619   5.482   3.007 -0.6746  1.5350  0.2597
 4114SOL     MW15646   3.536   5.467   2.986 -0.3769  0.3715 -0.1473
 4115SOL     OW15647   2.714   5.147   5.634  0.0193  0.0477 -0.1198
 4115SOL    HW115648   2.692   5.074   5.576  1.8411 -0.8256  0.2511
 4115SOL    HW215649   2.789   5.116   5.684  1.0331  2.3001 -0.1813
 4115SOL     MW15650   2.721   5.134   5.633  0.3822  0.2241 -0.0801
 4116SOL     OW15651   4.963   2.000   3.264 -0.4073  0.0584  0.4851
 4116SOL    HW115652   4.979   2.047   3.346  2.1217 -1.7257  1.1163
 4116SOL    HW215653   5.011   2.049   3.198  0.3699 -0.3551  0.7304
 4116SOL     MW15654   4.971   2.012   3.266  0.0162 -0.2229  0.5972
 4117SOL     OW15655   2.343   5.528   5.424 -0.4596 -0.3113 -0.2953
 4117SOL    HW115656   2.426   5.565   5.396 -0.7983  0.5601 -0.1499
 4117SOL    HW215657   2.280   5.599   5.415 -0.9956 -0.6594  0.5782
 4117SOL     MW15658   2.346   5.542   5.419 -0.5717 -0.2446 -0.1650
 4118SOL     OW15659   0.882   2.540   2.967 -0.0195  0.1995  0.4201
 4118SOL    HW115660   0.837   2.557   2.884  0.2796  1.3592  0.4925
 4118SOL    HW215661   0.954   2.481   2.944 -1.1849 -1.1641  0.1981
 4118SOL     MW15662   0.885   2.535   2.954 -0.1304  0.1733  0.4008
 4119SOL     OW15663   4.112   4.318   1.353  0.0219 -0.5765  0.0112
 4119SOL    HW115664   4.164   4.389   1.390 -0.5540 -0.6925  1.0556
 4119SOL    HW215665   4.033   4.362   1.320  1.2268 -0.2412 -2.5551
 4119SOL     MW15666   4.108   4.333   1.353  0.1025 -0.5484 -0.1836
 4120SOL     OW15667   2.483   5.682   1.390 -0.1770 -0.2469 -0.0338
 4120SOL    HW115668   2.408   5.672   1.449  0.3553  0.8034  0.8384
 4120SOL    HW215669   2.475   5.609   1.329  0.7032 -2.9227  2.9157
 4120SOL     MW15670   2.472   5.671   1.389  0.0041 -0.4549  0.4554
 4121SOL     OW15671   1.821   1.364   4.860 -0.3084 -0.2060 -0.0138
 4121SOL    HW115672   1.744   1.317   4.830  0.1213 -0.1221 -1.2725
 4121SOL    HW215673   1.818   1.447   4.814 -0.4347  0.5444  1.3195
 4121SOL     MW15674   1.811   1.368   4.850 -0.2697 -0.0992 -0.0043
 4122SOL     OW15675   0.505   1.178   5.589 -0.0657  0.5302  0.2478
 4122SOL    HW115676   0.462   1.232   5.523  0.9102 -0.2521 -1.0460
 4122SOL    HW215677   0.593   1.164   5.555 -0.2704 -1.8106  0.5966
 4122SOL     MW15678   0.511   1.183   5.576  0.0330  0.1304  0.1273
 4123SOL     OW15679   0.637   4.566   3.371  0.0706 -0.1694 -0.2331
 4123SOL    HW115680   0.593   4.554   3.455  0.2965 -0.4080 -0.1467
 4123SOL    HW215681   0.568   4.553   3.306  0.2090 -1.5526 -0.1309
 4123SOL     MW15682   0.623   4.563   3.374  0.1172 -0.3767 -0.2089
 4124SOL     OW15683   3.215   2.606   5.608 -0.3338  0.0183  0.3242
 4124SOL    HW115684   3.258   2.559   5.680  0.3039  0.3832  0.1778
 4124SOL    HW215685   3.179   2.537   5.553 -1.4497 -0.2577  1.3724
 4124SOL     MW15686   3.216   2.591   5.610 -0.3951  0.0296  0.4392
 4125SOL     OW15687   5.626   0.924   1.283  0.4234 -0.0412 -0.1210
 4125SOL    HW115688   5.678   1.005   1.278  0.7487 -0.0640  2.2411
 4125SOL    HW215689   5.535   0.954   1.287  0.5650  0.2314  1.1480
 4125SOL     MW15690   5.621   0.938   1.283  0.4835 -0.0092  0.3438
 4126SOL     OW15691   0.984   3.374   2.202 -0.1974  0.4699 -0.3663
 4126SOL    HW115692   0.998   3.349   2.293  1.0415 -0.9053 -0.9090
 4126SOL    HW215693   0.903   3.329   2.177 -0.8266  1.2789  0.2050
 4126SOL     MW15694   0.975   3.365   2.210 -0.1193  0.3972 -0.3629
 4127SOL     OW15695   2.755   2.208   5.316  0.3943  0.0663 -0.2219
 4127SOL    HW115696   2.805   2.206   5.398  0.5042 -0.4722 -0.2980
 4127SOL    HW215697   2.724   2.298   5.309 -2.1524 -0.5868  1.9278
 4127SOL     MW15698   2.758   2.220   5.326  0.0825 -0.0863  0.0439
 4128SOL     OW15699   1.510   1.319   3.713 -0.8210 -0.5484  0.5819
 4128SOL    HW115700   1.541   1.229   3.726 -0.6682 -0.5426  0.2799
 4128SOL    HW215701   1.417   1.316   3.736 -0.7136 -0.6807  1.0055
 4128SOL     MW15702   1.502   1.307   3.717 -0.7876 -0.5646  0.5975
 4129SOL     OW15703   4.951   0.250   1.466  0.0723  0.6171 -0.1400
 4129SOL    HW115704   4.894   0.178   1.440 -1.2775  1.2723  0.8952
 4129SOL    HW215705   4.977   0.229   1.556  0.4627  0.9368 -0.1761
 4129SOL     MW15706   4.947   0.238   1.474 -0.0501  0.7419 -0.0123
 4130SOL     OW15707   4.595   0.761   2.117 -0.0485  0.8174 -0.3740
 4130SOL    HW115708   4.547   0.725   2.042 -1.4723  0.7207  0.5654
 4130SOL    HW215709   4.537   0.747   2.192  1.5740  0.4383  0.8544
 4130SOL     MW15710   4.581   0.754   2.117 -0.0234  0.7564 -0.0966
 4131SOL     OW15711   1.449   5.274   2.097  0.5455 -0.0725  0.0644
 4131SOL    HW115712   1.356   5.254   2.112  0.2433  0.3164 -1.2204
 4131SOL    HW215713   1.474   5.328   2.172 -0.0523 -0.8289  0.8255
 4131SOL     MW15714   1.440   5.278   2.109  0.4302 -0.1197 -0.0026
 4132SOL     OW15715   0.525   0.165   3.374 -0.5765 -0.9572 -1.1472
 4132SOL    HW115716   0.478   0.139   3.452  0.1756 -0.1839 -0.4169
 4132SOL    HW215717   0.531   0.086   3.321 -0.5977 -1.6181 -0.1638
 4132SOL     MW15718   0.520   0.152   3.377 -0.4829 -0.9428 -0.9279
 4133SOL     OW15719   5.075   3.569   1.621  0.3669 -0.1295 -0.4369
 4133SOL    HW115720   5.006   3.508   1.648  0.9224 -0.1158  1.0690
 4133SOL    HW215721   5.030   3.632   1.564 -1.0040  0.2316  1.0067
 4133SOL     MW15722   5.060   3.570   1.617  0.2627 -0.0815 -0.0594
 4134SOL     OW15723   5.069   0.549   3.066  0.0870  0.1748  0.3741
 4134SOL    HW115724   5.007   0.620   3.052 -0.4419 -0.3509  0.0570
 4134SOL    HW215725   5.061   0.528   3.159 -1.1163 -0.7357  0.0692
 4134SOL     MW15726   5.060   0.556   3.077 -0.1349 -0.0090  0.2944
 4135SOL     OW15727   5.212   1.593   5.196 -0.0152  0.2188 -0.0713
 4135SOL    HW115728   5.269   1.618   5.268  1.1065  0.0463 -0.8914
 4135SOL    HW215729   5.124   1.592   5.234  0.3075  2.1988  0.7786
 4135SOL     MW15730   5.208   1.596   5.210  0.1698  0.4503 -0.0677
 4136SOL     OW15731   5.479   0.150   0.382 -0.5866 -0.2843  0.6290
 4136SOL    HW115732   5.468   0.116   0.293 -0.1214  0.0398  0.4474
 4136SOL    HW215733   5.557   0.106   0.415 -1.4242 -1.2967  1.3066
 4136SOL     MW15734   5.487   0.140   0.375 -0.6342 -0.3724  0.6925
 4137SOL     OW15735   3.111   3.986   3.191  0.0304  0.8508 -0.2639
 4137SOL    HW115736   3.146   3.990   3.280  0.2633 -1.8168 -0.1848
 4137SOL    HW215737   3.132   4.071   3.153  0.2882  1.8825  2.0877
 4137SOL     MW15738   3.118   3.997   3.198  0.0935  0.6413  0.0472
 4138SOL     OW15739   1.826   1.898   2.287 -0.0567 -0.3687 -0.4804
 4138SOL    HW115740   1.779   1.853   2.357  0.0884 -0.0583 -0.1775
 4138SOL    HW215741   1.765   1.901   2.214 -0.2564 -0.5838 -0.3223
 4138SOL     MW15742   1.812   1.893   2.287 -0.0639 -0.3566 -0.4213
 4139SOL     OW15743   2.142   5.858   2.519 -0.1109  0.3896  0.2994
 4139SOL    HW115744   2.116   5.859   2.426  0.2527 -0.8331  0.1708
 4139SOL    HW215745   2.061   5.842   2.566 -0.1239 -0.1097  0.1125
 4139SOL     MW15746   2.128   5.856   2.513 -0.0663  0.1693  0.2589
 4140SOL     OW15747   0.196   1.622   2.033 -0.2359  0.1527  0.0614
 4140SOL    HW115748   0.188   1.527   2.025 -0.8352  0.3430 -1.8690
 4140SOL    HW215749   0.232   1.650   1.948  0.1238  1.6176  0.6931
 4140SOL     MW15750   0.199   1.613   2.021 -0.2666  0.3645 -0.1051
 4141SOL     OW15751   4.782   2.552   1.489 -0.9418 -0.2428 -0.3204
 4141SOL    HW115752   4.811   2.472   1.532 -2.6939 -0.8933 -0.3270
 4141SOL    HW215753   4.705   2.580   1.538  0.2885  2.0733  0.3815
 4141SOL     MW15754   4.776   2.545   1.500 -1.0085 -0.0296 -0.2315
 4142SOL     OW15755   1.789   4.981   1.467  0.2954 -0.4824  0.0223
 4142SOL    HW115756   1.698   5.001   1.485  0.2927 -0.3815 -0.1007
 4142SOL    HW215757   1.835   5.002   1.548  0.2319 -0.3853  0.0329
 4142SOL     MW15758   1.783   4.986   1.480  0.2869 -0.4568  0.0080
 4143SOL     OW15759   4.111   4.466   3.216  0.2227  0.2405 -0.3028
 4143SOL    HW115760   4.138   4.494   3.129  2.7928 -1.3058 -0.0631
 4143SOL    HW215761   4.140   4.375   3.222 -2.7435 -0.6792  1.0351
 4143SOL     MW15762   4.119   4.458   3.206  0.1721 -0.0753 -0.1009
 4144SOL     OW15763   0.408   5.589   5.707 -0.6448  0.3487  0.1799
 4144SOL    HW115764   0.430   5.608   5.615 -0.1346 -0.7804  0.0613
 4144SOL    HW215765   0.316   5.613   5.715 -0.7939  0.1079 -0.7352
 4144SOL     MW15766   0.399   5.594   5.696 -0.5986  0.1736  0.0482
 4145SOL     OW15767   2.043   4.932   3.287  0.3269 -0.3773  0.2675
 4145SOL    HW115768   1.966   4.907   3.338  0.6837 -1.0065  0.5126
 4145SOL    HW215769   2.013   4.934   3.196 -0.5057  1.5271  0.5689
 4145SOL     MW15770   2.030   4.929   3.282  0.2658 -0.2136  0.3376
 4146SOL     OW15771   2.423   5.098   0.780 -0.1989  0.2948  0.0256
 4146SOL    HW115772   2.491   5.165   0.774 -1.4001  1.3251 -3.5230
 4146SOL    HW215773   2.472   5.015   0.783  1.2730  1.0363 -1.9624
 4146SOL     MW15774   2.438   5.096   0.779 -0.1645  0.5212 -0.6832
 4147SOL     OW15775   1.772   4.531   0.568 -0.7309  0.4607  0.0643
 4147SOL    HW115776   1.788   4.623   0.548 -0.2418  0.3158 -0.2161
 4147SOL    HW215777   1.856   4.488   0.553 -1.2683 -0.2418 -1.0071
 4147SOL     MW15778   1.785   4.537   0.563 -0.7371  0.3524 -0.1088
 4148SOL     OW15779   3.830   0.700   2.858  0.1083 -0.6215 -0.3559
 4148SOL    HW115780   3.776   0.622   2.871  0.8434 -1.1105 -0.2082
 4148SOL    HW215781   3.826   0.747   2.941  2.6783 -2.4097  0.8701
 4148SOL     MW15782   3.823   0.696   2.870  0.5314 -0.9131 -0.1800
 4149SOL     OW15783   2.770   2.011   5.117  0.6958  0.4069 -0.1386
 4149SOL    HW115784   2.753   2.102   5.141  1.0688  0.2990  0.5615
 4149SOL    HW215785   2.854   1.990   5.159  0.4687 -0.3510 -0.0426
 4149SOL     MW15786   2.779   2.020   5.125  0.7143  0.2961 -0.0367
 4150SOL     OW15787   0.597   3.282   4.372 -0.4010 -0.3075  0.3249
 4150SOL    HW115788   0.509   3.320   4.371  0.1948  1.1100  0.4100
 4150SOL    HW215789   0.620   3.268   4.280  0.2455  1.6317  0.1725
 4150SOL     MW15790   0.589   3.285   4.360 -0.2420  0.1223  0.3161
 4151SOL     OW15791   3.107   5.136   3.750  0.5462  0.2311  0.2895
 4151SOL    HW115792   3.173   5.196   3.784  0.2154  2.4642 -2.8100
 4151SOL    HW215793   3.027   5.160   3.797  0.8614  0.8181  0.5363
 4151SOL     MW15794   3.105   5.147   3.761  0.5443  0.5918 -0.0756
 4152SOL     OW15795   2.634   2.457   5.256 -0.1164 -0.0188  0.0000
 4152SOL    HW115796   2.548   2.439   5.295  0.0350  0.4142  0.5359
 4152SOL    HW215797   2.630   2.549   5.232  0.2971  0.0653  0.2610
 4152SOL     MW15798   2.622   2.466   5.258 -0.0439  0.0477  0.1020
 4153SOL     OW15799   1.765   5.517   0.503  0.1112 -0.9333 -0.8715
 4153SOL    HW115800   1.831   5.517   0.571  2.1312  2.5525 -2.6751
 4153SOL    HW215801   1.704   5.586   0.529 -2.0286 -3.0823 -0.0143
 4153SOL     MW15802   1.766   5.526   0.515  0.0960 -0.7620 -0.9927
 4154SOL     OW15803   3.959   0.842   0.549 -0.2527  0.6136 -0.3965
 4154SOL    HW115804   3.870   0.813   0.569  1.2185 -2.1995  2.6945
 4154SOL    HW215805   4.005   0.763   0.521  1.9963  1.3855  0.9271
 4154SOL     MW15806   3.954   0.829   0.548  0.2234  0.3523  0.1687
 4155SOL     OW15807   5.810   1.877   5.368 -0.3843 -0.2651  0.3617
 4155SOL    HW115808   5.720   1.895   5.341  0.1655 -0.6566 -1.8010
 4155SOL    HW215809   5.865   1.914   5.299  1.1147 -0.5201  1.3695
 4155SOL     MW15810   5.806   1.884   5.356 -0.1225 -0.3480  0.2131
 4156SOL     OW15811   4.052   2.173   0.110  0.1830 -0.0646  0.7917
 4156SOL    HW115812   4.094   2.195   0.193  0.0298 -3.0044  1.6810
 4156SOL    HW215813   4.061   2.253   0.058  1.0590  1.5444  3.2926
 4156SOL     MW15814   4.059   2.186   0.114  0.2756 -0.2351  1.2257
 4157SOL     OW15815   4.771   5.043   5.440 -0.1092  0.5088  1.2201
 4157SOL    HW115816   4.815   5.080   5.363 -1.5792 -1.0316 -0.4114
 4157SOL    HW215817   4.825   4.970   5.466  0.0555  0.6448  1.2589
 4157SOL     MW15818   4.783   5.039   5.433 -0.2766  0.3285  1.0161
 4158SOL     OW15819   3.654   0.205   5.211 -0.0903  0.2091  0.0829
 4158SOL    HW115820   3.629   0.298   5.215 -0.3977  0.1201  0.2714
 4158SOL    HW215821   3.701   0.190   5.293 -0.9589 -0.0616  0.5408
 4158SOL     MW15822   3.657   0.215   5.222 -0.2408  0.1631  0.1655
 4159SOL     OW15823   0.521   4.741   2.990  0.2401  0.1674 -0.5189
 4159SOL    HW115824   0.483   4.763   3.076  2.2275  0.8529  0.2130
 4159SOL    HW215825   0.449   4.756   2.928 -1.4893 -1.1774  1.1051
 4159SOL     MW15826   0.507   4.746   2.993  0.2731  0.0830 -0.2172
 4160SOL     OW15827   4.311   3.291   1.043  0.0365  0.6381 -0.4099
 4160SOL    HW115828   4.304   3.245   0.960 -0.4489  1.6399 -0.9261
 4160SOL    HW215829   4.401   3.274   1.072  0.0775 -0.0472 -0.9386
 4160SOL     MW15830   4.322   3.283   1.036 -0.0210  0.6785 -0.5436
 4161SOL     OW15831   1.824   4.367   1.317 -0.6623  0.1105 -0.3187
 4161SOL    HW115832   1.856   4.311   1.246 -0.6411 -0.5740  0.2260
 4161SOL    HW215833   1.749   4.412   1.280 -0.7465 -0.3640 -0.7270
 4161SOL     MW15834   1.819   4.365   1.303 -0.6704 -0.0377 -0.3011
 4162SOL     OW15835   4.223   5.939   3.221 -0.7864 -0.3177 -0.2249
 4162SOL    HW115836   4.157   5.943   3.152  0.5456 -0.4297 -1.5115
 4162SOL    HW215837   4.176   5.901   3.296 -2.3931  0.3587 -0.8634
 4162SOL     MW15838   4.209   5.935   3.222 -0.8216 -0.2456 -0.4714
 4163SOL     OW15839   4.621   3.192   2.516 -0.3059  0.4206 -0.2572
 4163SOL    HW115840   4.610   3.236   2.600  0.6147  0.7297 -0.2939
 4163SOL    HW215841   4.666   3.256   2.461  0.3815 -0.3039 -0.5427
 4163SOL     MW15842   4.625   3.206   2.520 -0.1001  0.3674 -0.2983
 4164SOL     OW15843   3.355   3.001   2.872  0.3305 -0.1130 -0.6276
 4164SOL    HW115844   3.385   3.061   2.940  0.1548  0.8078 -1.3554
 4164SOL    HW215845   3.287   2.949   2.914  1.3998 -0.6885  0.3827
 4164SOL     MW15846   3.350   3.002   2.886  0.4449 -0.0689 -0.5915
 4165SOL     OW15847   3.396   0.630   1.978 -0.2555  0.3824 -0.0544
 4165SOL    HW115848   3.358   0.710   2.017 -0.7679 -0.5408  1.3933
 4165SOL    HW215849   3.359   0.559   2.030 -0.7115 -0.8906 -2.0876
 4165SOL     MW15850   3.387   0.631   1.990 -0.3793  0.1012 -0.1293
 4166SOL     OW15851   2.371   0.305   3.456  0.1888  0.4680 -0.3710
 4166SOL    HW115852   2.452   0.346   3.487 -0.4933  0.6461  1.2358
 4166SOL    HW215853   2.390   0.211   3.457  0.4121  0.5137 -0.1176
 4166SOL     MW15854   2.384   0.298   3.460  0.1299  0.4967 -0.1326
 4167SOL     OW15855   0.954   3.703   1.479 -0.2576  0.1327 -0.2752
 4167SOL    HW115856   0.953   3.798   1.487  2.4182  0.0477  2.1493
 4167SOL    HW215857   0.867   3.675   1.508 -0.6019  1.7709  0.3083
 4167SOL     MW15858   0.943   3.711   1.484  0.0408  0.3314  0.1099
 4168SOL     OW15859   4.025   5.453   2.339  1.0821  0.3128  0.3997
 4168SOL    HW115860   3.976   5.384   2.385 -0.2793 -0.0832 -1.6063
 4168SOL    HW215861   4.117   5.431   2.356  0.6566 -1.7826  0.1201
 4168SOL     MW15862   4.031   5.441   2.347  0.8531 -0.0057  0.1073
 4169SOL     OW15863   3.091   5.900   4.870  0.0496 -0.0804 -0.4071
 4169SOL    HW115864   3.090   5.844   4.948 -3.0872 -1.2827 -1.2459
 4169SOL    HW215865   3.091   5.839   4.796  0.8041  1.0428 -1.3498
 4169SOL     MW15866   3.091   5.885   4.871 -0.2556 -0.0901 -0.6351
 4170SOL     OW15867   4.712   0.093   5.094  0.0627  0.2279  0.2276
 4170SOL    HW115868   4.660   0.026   5.139  0.5708  1.5952  2.9883
 4170SOL    HW215869   4.660   0.173   5.103  1.1352  0.9390  0.1197
 4170SOL     MW15870   4.698   0.095   5.101  0.2651  0.4939  0.5674
 4171SOL     OW15871   2.477   5.795   3.909  0.5608  0.0547 -0.0931
 4171SOL    HW115872   2.524   5.725   3.956 -0.1056 -2.4171 -2.9851
 4171SOL    HW215873   2.385   5.782   3.933  0.5848  0.8069  0.4212
 4171SOL     MW15874   2.471   5.784   3.918  0.4790 -0.1659 -0.3974
 4172SOL     OW15875   3.669   2.930   4.111  0.9020 -0.0413 -0.0069
 4172SOL    HW115876   3.728   2.932   4.187  0.5919  1.4212  0.2080
 4172SOL    HW215877   3.614   3.007   4.121 -1.3158 -1.5598 -0.0078
 4172SOL     MW15878   3.669   2.940   4.122  0.5782 -0.0486  0.0205
 4173SOL     OW15879   3.934   0.578   5.580 -0.4175  0.2323 -0.0653
 4173SOL    HW115880   3.945   0.628   5.500 -0.6396 -0.8273 -0.7724
 4173SOL    HW215881   3.985   0.498   5.566 -1.6884 -0.6513  0.2258
 4173SOL     MW15882   3.942   0.574   5.568 -0.6087 -0.0165 -0.1187
 4174SOL     OW15883   0.389   1.946   1.607 -0.1212  0.0325  0.0760
 4174SOL    HW115884   0.378   1.875   1.670 -0.6067  0.9993  1.1029
 4174SOL    HW215885   0.483   1.950   1.590 -0.1268 -1.0347 -0.1974
 4174SOL     MW15886   0.400   1.938   1.613 -0.1840  0.0197  0.1725
 4175SOL     OW15887   0.588   2.764   0.229 -1.0401  0.4547  0.0884
 4175SOL    HW115888   0.587   2.854   0.259 -0.4878  1.0131 -1.5375
 4175SOL    HW215889   0.644   2.764   0.151  0.0917 -1.5335  0.8366
 4175SOL     MW15890   0.595   2.775   0.223 -0.8245  0.2716 -0.0240
 4176SOL     OW15891   5.963   1.990   2.925  0.0185  0.1721 -0.7295
 4176SOL    HW115892   6.005   2.050   2.863 -0.2193  1.8331  0.6828
 4176SOL    HW215893   6.032   1.966   2.987 -0.2091  0.0166 -0.5317
 4176SOL     MW15894   5.977   1.995   2.925 -0.0405  0.3648 -0.5236
 4177SOL     OW15895   4.948   3.876   0.026  0.0372 -0.0450  0.9120
 4177SOL    HW115896   4.929   3.790  -0.013  0.8766  0.6696 -1.1396
 4177SOL    HW215897   5.043   3.883   0.022 -0.0862  1.3033  0.3856
 4177SOL     MW15898   4.958   3.866   0.020  0.1292  0.2191  0.5822
 4178SOL     OW15899   0.481   3.837   1.600  0.1859  0.3587 -0.2616
 4178SOL    HW115900   0.418   3.864   1.667 -0.7563  0.8945 -1.3415
 4178SOL    HW215901   0.432   3.778   1.544  0.6560  0.7648 -1.1070
 4178SOL     MW15902   0.467   3.833   1.602  0.1255  0.4792 -0.5081
 4179SOL     OW15903   5.437   1.857   5.617  0.3087  0.2479  0.1215
 4179SOL    HW115904   5.391   1.938   5.637 -0.7390 -0.8287  2.1599
 4179SOL    HW215905   5.522   1.867   5.659 -1.2323 -1.2644  3.7998
 4179SOL     MW15906   5.442   1.869   5.625 -0.0219 -0.0836  0.8535
 4180SOL     OW15907   2.584   3.802   0.768 -0.5243  0.1534  0.2747
 4180SOL    HW115908   2.643   3.778   0.839 -1.1526 -0.5035  0.5694
 4180SOL    HW215909   2.584   3.898   0.769 -1.2971  0.1468  1.7871
 4180SOL     MW15910   2.592   3.811   0.777 -0.7038  0.0687  0.5060
 4181SOL     OW15911   2.468   0.362   1.793  0.3479 -0.7592  0.0343
 4181SOL    HW115912   2.483   0.268   1.806 -0.0941 -0.8877 -0.3600
 4181SOL    HW215913   2.535   0.388   1.730  1.0748 -0.6074  0.8680
 4181SOL     MW15914   2.478   0.353   1.787  0.3843 -0.7562  0.0904
 4182SOL     OW15915   4.676   5.183   2.736 -1.1449 -0.0251 -0.4114
 4182SOL    HW115916   4.742   5.185   2.667  1.3207 -0.3136  1.8639
 4182SOL    HW215917   4.649   5.092   2.741  0.3546 -0.4185  0.5482
 4182SOL     MW15918   4.681   5.172   2.728 -0.6375 -0.1125  0.0026
 4183SOL     OW15919   2.259   2.865   1.683  0.4606 -0.0224 -0.3217
 4183SOL    HW115920   2.294   2.775   1.685  0.7160  0.0375 -1.6511
 4183SOL    HW215921   2.313   2.913   1.745  0.0030 -0.9014  0.7671
 4183SOL     MW15922   2.270   2.859   1.691  0.4346 -0.1276 -0.3525
 4184SOL     OW15923   5.762   3.923   4.389 -0.0224  0.8574 -0.1743
 4184SOL    HW115924   5.689   3.977   4.420 -0.7588 -0.7625  0.9794
 4184SOL    HW215925   5.834   3.985   4.377 -1.2568  2.3048 -0.2237
 4184SOL     MW15926   5.762   3.938   4.392 -0.2747  0.8352 -0.0329
 4185SOL     OW15927   0.290   0.331   5.060 -0.4830  0.1288 -0.4881
 4185SOL    HW115928   0.264   0.299   4.974  0.1918  0.1903 -0.7186
 4185SOL    HW215929   0.291   0.252   5.115 -1.1827  0.1327 -0.4608
 4185SOL     MW15930   0.287   0.316   5.056 -0.4862  0.1372 -0.5145
 4186SOL     OW15931   5.075   5.345   2.460 -0.2505 -0.5236 -0.2032
 4186SOL    HW115932   5.081   5.402   2.536 -1.9312 -1.9204  1.0200
 4186SOL    HW215933   5.067   5.405   2.386 -2.6566  0.8543  1.1043
 4186SOL     MW15934   5.074   5.360   2.460 -0.7734 -0.5260  0.1204
 4187SOL     OW15935   3.489   1.657   2.761  0.2364  0.0720 -0.3444
 4187SOL    HW115936   3.474   1.596   2.689 -0.9618  1.0965 -0.9927
 4187SOL    HW215937   3.401   1.674   2.797  0.8977 -1.0510  1.8854
 4187SOL     MW15938   3.476   1.651   2.756  0.1674  0.0594 -0.1419
 4188SOL     OW15939   4.942   5.568   1.872  0.3141 -0.1765  0.5620
 4188SOL    HW115940   4.938   5.505   1.944  0.1701 -1.7395 -0.7731
 4188SOL    HW215941   5.014   5.537   1.817 -1.4948 -0.7663 -1.5525
 4188SOL     MW15942   4.951   5.556   1.874  0.0644 -0.4516  0.1204
 4189SOL     OW15943   3.691   1.841   5.140 -0.1045 -0.0930  0.1347
 4189SOL    HW115944   3.689   1.745   5.134  0.0743 -0.1712  1.2436
 4189SOL    HW215945   3.620   1.870   5.082 -1.1669 -0.9565  0.9700
 4189SOL     MW15946   3.682   1.832   5.132 -0.2177 -0.2134  0.3829
 4190SOL     OW15947   2.801   4.908   3.929  0.1616 -0.2640 -0.0557
 4190SOL    HW115948   2.836   4.920   4.018 -0.8580 -0.9339  0.4548
 4190SOL    HW215949   2.826   4.987   3.882 -0.6997  0.8492  1.3156
 4190SOL     MW15950   2.808   4.920   3.935 -0.0789 -0.2069  0.1850
 4191SOL     OW15951   0.495   0.993   2.395  0.5749 -0.0588 -0.0902
 4191SOL    HW115952   0.450   1.077   2.386  2.4420  1.0531  0.5146
 4191SOL    HW215953   0.581   1.008   2.356  1.2476 -1.4105  0.8377
 4191SOL     MW15954   0.500   1.006   2.389  0.9001 -0.0894  0.1059
 4192SOL     OW15955   1.309   2.930   2.286 -0.0393  0.2125  0.0773
 4192SOL    HW115956   1.279   2.867   2.220  0.2094  1.7780 -1.5608
 4192SOL    HW215957   1.233   2.942   2.343 -0.9006  0.3002 -1.0678
 4192SOL     MW15958   1.295   2.924   2.285 -0.1177  0.4241 -0.2787
 4193SOL     OW15959   4.408   0.094   4.202  0.0842  0.3919  0.7364
 4193SOL    HW115960   4.355   0.015   4.200  1.1036 -0.3042  1.1522
 4193SOL    HW215961   4.344   0.166   4.197 -0.8702 -0.4387  0.9229
 4193SOL     MW15962   4.393   0.093   4.201  0.0925  0.1964  0.8135
 4194SOL     OW15963   5.390   5.665   1.311  0.4959  0.0879 -0.3237
 4194SOL    HW115964   5.320   5.630   1.256  1.1092 -0.1955 -0.9340
 4194SOL    HW215965   5.375   5.624   1.397  0.2896 -0.4731 -0.6216
 4194SOL     MW15966   5.379   5.655   1.315  0.5479 -0.0205 -0.4400
 4195SOL     OW15967   1.155   0.730   2.659 -0.2488  0.1565 -0.1953
 4195SOL    HW115968   1.102   0.747   2.582 -1.5356  0.8420  0.8246
 4195SOL    HW215969   1.103   0.669   2.712 -0.0745  0.9079  0.8628
 4195SOL     MW15970   1.142   0.724   2.656 -0.3912  0.3405  0.0708
 4196SOL     OW15971   5.856   2.570   4.540 -0.6386  0.6651 -0.0289
 4196SOL    HW115972   5.783   2.594   4.597  0.5857 -0.4933  2.0992
 4196SOL    HW215973   5.926   2.631   4.565 -0.2143  0.4101 -0.5842
 4196SOL     MW15974   5.856   2.581   4.551 -0.4282  0.4842  0.1731
 4197SOL     OW15975   2.206   3.186   4.921 -0.0517  0.5719  0.3727
 4197SOL    HW115976   2.222   3.198   5.014 -0.7829  1.9090  0.3396
 4197SOL    HW215977   2.293   3.183   4.881  0.2399  1.8383  0.8879
 4197SOL     MW15978   2.219   3.187   4.928 -0.1080  0.9053  0.4344
 4198SOL     OW15979   4.951   5.824   4.583 -0.4388 -0.1254 -0.3753
 4198SOL    HW115980   4.932   5.760   4.515 -1.8982  0.0231 -0.1315
 4198SOL    HW215981   4.882   5.810   4.649 -1.5661  2.5532 -0.9406
 4198SOL     MW15982   4.939   5.814   4.583 -0.7701  0.2365 -0.4163
 4199SOL     OW15983   3.437   2.603   0.584 -0.7270 -0.5463  0.3938
 4199SOL    HW115984   3.365   2.543   0.605 -0.9713 -0.3414  0.1440
 4199SOL    HW215985   3.423   2.677   0.643 -1.3076 -0.0509 -0.3531
 4199SOL     MW15986   3.426   2.605   0.594 -0.8323 -0.4568  0.2662
 4200SOL     OW15987   2.654   2.907   2.665  0.2498 -0.5106 -0.1833
 4200SOL    HW115988   2.585   2.841   2.661  1.0515 -1.6506  3.1379
 4200SOL    HW215989   2.611   2.984   2.702  0.1633 -0.3645 -0.5864
 4200SOL     MW15990   2.640   2.908   2.669  0.3412 -0.6378  0.1903
 4201SOL     OW15991   2.301   3.840   1.335  0.7513  0.2160 -0.3107
 4201SOL    HW115992   2.326   3.836   1.243  3.0472 -1.5003  0.3491
 4201SOL    HW215993   2.313   3.932   1.359  0.5895  0.5807 -1.5688
 4201SOL     MW15994   2.306   3.851   1.326  1.0245  0.0429 -0.3873
 4202SOL     OW15995   1.652   3.831   4.931  0.2654 -0.0646 -0.3134
 4202SOL    HW115996   1.587   3.804   4.865  1.1963  0.3447 -1.4245
 4202SOL    HW215997   1.605   3.893   4.986 -0.3105  0.1924 -1.0745
 4202SOL     MW15998   1.638   3.836   4.929  0.3109  0.0210 -0.5531
 4203SOL     OW15999   1.215   0.217   3.577 -0.0119 -0.8653 -0.1067
 4203SOL    HW116000   1.219   0.129   3.540 -0.1476  0.0124 -2.2673
 4203SOL    HW216001   1.295   0.260   3.545  0.3726 -0.3786  1.4441
 4203SOL     MW16002   1.226   0.212   3.568  0.0199 -0.6906 -0.1848
 4204SOL     OW16003   0.877   2.371   4.674 -0.5497  0.1961 -0.3773
 4204SOL    HW116004   0.963   2.337   4.697  0.0965  1.9329 -0.1249
 4204SOL    HW216005   0.817   2.297   4.685  0.8393 -0.8996 -0.1257
 4204SOL     MW16006   0.880   2.357   4.678 -0.2891  0.2785 -0.3128
 4205SOL     OW16007   4.733   5.766   4.167  0.0196 -0.0794  0.2074
 4205SOL    HW116008   4.692   5.752   4.082  2.0638 -0.2941 -0.7717
 4205SOL    HW216009   4.710   5.857   4.190 -1.5654 -0.4207  0.0291
 4205SOL     MW16010   4.725   5.776   4.159  0.0787 -0.1507  0.0591
 4206SOL     OW16011   2.063   0.289   5.250 -0.3382  0.3124  0.7625
 4206SOL    HW116012   2.096   0.342   5.323 -0.9120 -2.4557  3.0928
 4206SOL    HW216013   2.132   0.225   5.234 -1.5140 -0.9979  0.8956
 4206SOL     MW16014   2.076   0.288   5.257 -0.5622 -0.2097  1.0777
 4207SOL     OW16015   5.526   2.642   4.287  0.3377  0.1110  1.0583
 4207SOL    HW116016   5.619   2.621   4.293 -0.0827 -1.8554  1.0998
 4207SOL    HW216017   5.489   2.612   4.370 -0.6076 -0.5936  0.3890
 4207SOL     MW16018   5.533   2.636   4.298  0.1626 -0.2310  0.9780
 4208SOL     OW16019   1.965   5.426   0.680 -0.4265  0.2340  0.3292
 4208SOL    HW116020   1.918   5.419   0.763  1.0736  0.3015  1.2011
 4208SOL    HW216021   1.993   5.336   0.661  0.1019  0.3780  0.4174
 4208SOL     MW16022   1.962   5.413   0.688 -0.1668  0.2608  0.4521
 4209SOL     OW16023   3.117   1.589   1.697 -0.1887  0.0382  0.0602
 4209SOL    HW116024   3.076   1.669   1.665  0.1053  0.9926  1.9478
 4209SOL    HW216025   3.206   1.592   1.661  0.2495  1.2638  1.1637
 4209SOL     MW16026   3.123   1.600   1.689 -0.0951  0.3173  0.4431
 4210SOL     OW16027   2.453   0.602   0.500  0.3203  0.6290  0.0446
 4210SOL    HW116028   2.429   0.643   0.583  0.2824  0.7434 -0.0220
 4210SOL    HW216029   2.370   0.583   0.457  0.3446  1.2840 -0.3095
 4210SOL     MW16030   2.439   0.605   0.505  0.3188  0.7275 -0.0092
 4211SOL     OW16031   4.629   2.494   3.968  0.2372  0.3997 -0.0344
 4211SOL    HW116032   4.684   2.572   3.968  1.2652 -0.2587  3.0977
 4211SOL    HW216033   4.655   2.446   4.047 -3.1513 -1.1231  0.2514
 4211SOL     MW16034   4.639   2.498   3.978 -0.0648  0.1204  0.4027
 4212SOL     OW16035   5.508   3.244   5.593  0.2385 -0.0323  0.7626
 4212SOL    HW116036   5.548   3.175   5.646 -0.2657 -0.6457  0.3554
 4212SOL    HW216037   5.428   3.267   5.640 -0.0675 -0.3819  0.4198
 4212SOL     MW16038   5.503   3.238   5.605  0.1345 -0.1557  0.6666
 4213SOL     OW16039   3.246   3.234   2.242  0.9762  0.1835  0.4503
 4213SOL    HW116040   3.230   3.235   2.148 -0.4635 -0.6386  0.6725
 4213SOL    HW216041   3.204   3.314   2.274  1.8688  0.6980  0.3282
 4213SOL     MW16042   3.238   3.244   2.234  0.9062  0.1442  0.4630
 4214SOL     OW16043   5.215   4.335   4.093  0.0138 -0.2676  0.2464
 4214SOL    HW116044   5.297   4.369   4.058  0.3445 -2.1045 -0.8314
 4214SOL    HW216045   5.242   4.269   4.157 -0.6197 -1.0636 -0.2988
 4214SOL     MW16046   5.229   4.331   4.097 -0.0248 -0.6046  0.0386
 4215SOL     OW16047   2.626   5.798   3.035  0.6435  0.6851  0.3164
 4215SOL    HW116048   2.634   5.837   2.948  0.4356 -1.2728 -0.6175
 4215SOL    HW216049   2.549   5.742   3.030  2.0306 -1.3396  0.9934
 4215SOL     MW16050   2.617   5.796   3.023  0.7944  0.1750  0.2835
 4216SOL     OW16051   0.863   1.410   1.583  0.0069  0.5576  0.1905
 4216SOL    HW116052   0.773   1.439   1.593  0.0318  0.3073  1.1209
 4216SOL    HW216053   0.879   1.415   1.488 -0.4958  2.0321  0.1722
 4216SOL     MW16054   0.854   1.414   1.572 -0.0543  0.7143  0.3072
 4217SOL     OW16055   4.976   4.219   1.902  0.4028  0.1760 -0.6006
 4217SOL    HW116056   4.909   4.163   1.939 -0.9547  1.2963 -1.3089
 4217SOL    HW216057   4.964   4.304   1.945 -0.3939  1.1399 -2.6193
 4217SOL     MW16058   4.966   4.223   1.912  0.1273  0.4430 -0.9497
 4218SOL     OW16059   3.545   1.987   2.949 -0.1407 -0.1960  0.1991
 4218SOL    HW116060   3.550   2.051   2.879  0.0630 -1.4263 -0.9445
 4218SOL    HW216061   3.582   2.032   3.026 -2.2908  1.8501  0.0753
 4218SOL     MW16062   3.551   2.001   2.950 -0.3898 -0.0916  0.0367
 4219SOL     OW16063   2.148   2.059   0.258  0.4145 -0.0844  0.1302
 4219SOL    HW116064   2.218   1.995   0.271  0.3069 -0.2318 -0.0115
 4219SOL    HW216065   2.106   2.067   0.344  0.2629 -0.3987  0.0870
 4219SOL     MW16066   2.152   2.052   0.271  0.3812 -0.1435  0.1065
 4220SOL     OW16067   5.118   1.302   4.620 -0.0014 -0.4397  0.1327
 4220SOL    HW116068   5.069   1.378   4.591 -1.6903 -1.6406 -0.2483
 4220SOL    HW216069   5.102   1.297   4.714 -2.2555 -1.9502 -0.3006
 4220SOL     MW16070   5.110   1.311   4.629 -0.5064 -0.7868  0.0291
 4221SOL     OW16071   2.435   0.970   1.543 -0.0658 -0.1587 -0.3466
 4221SOL    HW116072   2.380   0.914   1.597  1.0382 -1.5690 -0.6626
 4221SOL    HW216073   2.485   1.022   1.606 -1.4980  0.8969 -0.0566
 4221SOL     MW16074   2.434   0.970   1.558 -0.1078 -0.2041 -0.3499
 4222SOL     OW16075   4.106   5.543   2.776  0.1155 -0.1967 -0.4807
 4222SOL    HW116076   4.101   5.540   2.871 -2.7509  0.1306 -0.5843
 4222SOL    HW216077   4.106   5.451   2.749  2.5805 -0.3384 -0.1542
 4222SOL     MW16078   4.106   5.531   2.784  0.0639 -0.1726 -0.4520
 4223SOL     OW16079   5.542   4.705   4.780 -0.3488  0.5485 -0.5022
 4223SOL    HW116080   5.524   4.611   4.772  1.3996  0.2284 -0.9706
 4223SOL    HW216081   5.637   4.712   4.767 -0.6248  2.5129 -1.5741
 4223SOL     MW16082   5.552   4.693   4.778 -0.1607  0.7591 -0.6995
 4224SOL     OW16083   4.867   4.692   2.072 -0.1994  0.0344  0.6852
 4224SOL    HW116084   4.784   4.666   2.112  0.1082 -0.5474  0.9475
 4224SOL    HW216085   4.866   4.650   1.986 -0.4284  0.4926  0.4625
 4224SOL     MW16086   4.856   4.683   2.066 -0.1893  0.0186  0.6902
 4225SOL     OW16087   3.962   0.435   3.940 -0.3434  0.0122 -0.1173
 4225SOL    HW116088   3.982   0.494   4.013 -0.9221 -2.3111  1.9666
 4225SOL    HW216089   4.026   0.365   3.946 -1.8225 -1.3992 -0.4374
 4225SOL     MW16090   3.972   0.434   3.950 -0.6068 -0.4659  0.1085
 4226SOL     OW16091   0.137   3.639   1.805 -0.5823 -0.0343  0.0417
 4226SOL    HW116092   0.177   3.584   1.737  3.4267  1.7111  0.8291
 4226SOL    HW216093   0.102   3.714   1.758 -3.2083 -1.6328 -0.6733
 4226SOL     MW16094   0.138   3.641   1.790 -0.4052 -0.0155  0.0509
 4227SOL     OW16095   1.299   3.440   3.853  0.5464 -0.1808  0.0758
 4227SOL    HW116096   1.301   3.501   3.779  3.0318 -0.5421 -0.1953
 4227SOL    HW216097   1.217   3.461   3.899 -0.8901  0.2657 -2.5609
 4227SOL     MW16098   1.289   3.450   3.849  0.6808 -0.1698 -0.2964
 4228SOL     OW16099   5.485   3.997   0.167 -0.8011  0.0235  0.3821
 4228SOL    HW116100   5.518   4.005   0.257  0.6675  1.2247 -0.2510
 4228SOL    HW216101   5.562   4.006   0.112 -1.6101 -1.2966 -1.0038
 4228SOL     MW16102   5.499   3.999   0.172 -0.7172  0.0086  0.1236
 4229SOL     OW16103   2.521   5.173   2.815 -0.1928  0.2880  0.0265
 4229SOL    HW116104   2.557   5.261   2.809  0.2317  0.0935 -0.2872
 4229SOL    HW216105   2.527   5.150   2.908 -1.3404  1.0207  0.2905
 4229SOL     MW16106   2.526   5.181   2.826 -0.2854  0.3572  0.0200
 4230SOL     OW16107   3.594   1.444   1.781  0.3538  0.5665  0.2869
 4230SOL    HW116108   3.680   1.483   1.766  0.0187  1.9214  1.7288
 4230SOL    HW216109   3.532   1.513   1.759 -0.3390  0.0452  0.5782
 4230SOL     MW16110   3.597   1.458   1.776  0.2222  0.6732  0.5088
 4231SOL     OW16111   2.974   3.933   2.046  0.5824 -0.0455  0.5433
 4231SOL    HW116112   3.003   3.907   1.958  1.0282  0.5656  0.5089
 4231SOL    HW216113   2.927   3.857   2.079 -1.8662  0.6520 -1.2508
 4231SOL     MW16114   2.972   3.920   2.039  0.3262  0.1221  0.3095
 4232SOL     OW16115   2.946   1.016   0.910  0.3536 -0.1681  0.1619
 4232SOL    HW116116   2.977   1.093   0.958  1.0439 -1.3244  1.6434
 4232SOL    HW216117   3.010   1.005   0.839 -0.1200  0.9864 -0.4589
 4232SOL     MW16118   2.958   1.024   0.907  0.3815 -0.1683  0.2720
 4233SOL     OW16119   2.005   3.984   5.199 -0.2333  0.2624  0.3819
 4233SOL    HW116120   2.017   3.955   5.109 -0.6505  0.2568  0.3314
 4233SOL    HW216121   2.092   4.014   5.226  0.5278 -2.2566  0.8790
 4233SOL     MW16122   2.018   3.984   5.191 -0.1893 -0.0608  0.4387
 4234SOL     OW16123   1.902   2.137   1.195  0.2685  0.4931  0.2311
 4234SOL    HW116124   1.888   2.225   1.158 -1.6295  0.9387  1.9452
 4234SOL    HW216125   1.814   2.101   1.206  1.0217 -1.5035 -0.0901
 4234SOL     MW16126   1.889   2.144   1.192  0.1220  0.2947  0.4095
 4235SOL     OW16127   3.280   5.224   0.671  0.1577  0.2317 -0.3679
 4235SOL    HW116128   3.296   5.278   0.594 -3.0158  1.5779 -0.1717
 4235SOL    HW216129   3.242   5.284   0.735 -1.6974 -1.8163  0.5306
 4235SOL     MW16130   3.277   5.238   0.669 -0.4859  0.1416 -0.2277
 4236SOL     OW16131   3.686   1.281   4.194 -0.2369 -0.8098 -0.7509
 4236SOL    HW116132   3.666   1.276   4.100 -0.8762  0.4763 -0.6938
 4236SOL    HW216133   3.624   1.221   4.235 -1.9061  0.7850 -0.8879
 4236SOL     MW16134   3.676   1.272   4.187 -0.5324 -0.4411 -0.7610
 4237SOL     OW16135   4.448   2.102   3.341 -0.4730 -0.4378  0.4651
 4237SOL    HW116136   4.515   2.050   3.296  0.3634  1.1443 -0.1213
 4237SOL    HW216137   4.366   2.057   3.320  0.3454 -2.2158  0.9432
 4237SOL     MW16138   4.446   2.089   3.333 -0.2613 -0.4628  0.4511
 4238SOL     OW16139   3.033   4.557   4.271 -0.0349  0.3955  0.3816
 4238SOL    HW116140   2.968   4.576   4.204 -0.1546 -1.1328  0.0358
 4238SOL    HW216141   3.114   4.541   4.221 -0.1970 -1.0516  0.5723
 4238SOL     MW16142   3.035   4.557   4.256 -0.0708  0.0143  0.3619
 4239SOL     OW16143   4.091   2.264   5.499 -0.1776  0.3500 -0.1001
 4239SOL    HW116144   4.138   2.190   5.539  0.4216 -0.1258 -1.6208
 4239SOL    HW216145   4.158   2.331   5.488 -0.9734  1.5998  2.3593
 4239SOL     MW16146   4.106   2.263   5.503 -0.2027  0.4489  0.0200
 4240SOL     OW16147   1.367   3.598   4.987 -0.0456  0.3751 -0.2541
 4240SOL    HW116148   1.287   3.546   4.980 -0.1267  0.4367  0.1708
 4240SOL    HW216149   1.366   3.655   4.910 -0.4086  0.3741 -0.2503
 4240SOL     MW16150   1.357   3.599   4.976 -0.1025  0.3827 -0.1993
 4241SOL     OW16151   1.524   3.154   4.834 -0.4028 -0.1365  0.5265
 4241SOL    HW116152   1.588   3.086   4.814 -0.4109 -0.0552  0.2212
 4241SOL    HW216153   1.577   3.233   4.847 -0.3929 -0.2002  0.8831
 4241SOL     MW16154   1.539   3.156   4.833 -0.4025 -0.1342  0.5331
 4242SOL     OW16155   0.474   5.303   2.552  0.2637  0.4758 -0.4082
 4242SOL    HW116156   0.551   5.335   2.506 -0.1445  0.8166 -0.8599
 4242SOL    HW216157   0.503   5.224   2.597  0.7295  0.3030 -1.0203
 4242SOL     MW16158   0.488   5.297   2.552  0.2711  0.4978 -0.5445
 4243SOL     OW16159   0.703   3.696   0.063  0.5365  1.0430 -0.2373
 4243SOL    HW116160   0.748   3.614   0.043 -0.7740  0.0823  0.6528
 4243SOL    HW216161   0.651   3.715  -0.016  0.9094  1.0689 -0.4775
 4243SOL     MW16162   0.702   3.688   0.050  0.4165  0.9234 -0.1541
 4244SOL     OW16163   5.227   3.224   4.920 -0.4113  0.1670  0.3981
 4244SOL    HW116164   5.285   3.152   4.945  2.0904  1.9829  0.0728
 4244SOL    HW216165   5.163   3.229   4.991  1.2947 -0.3880  2.0275
 4244SOL     MW16166   5.226   3.216   4.932  0.1268  0.3285  0.5655
 4245SOL     OW16167   3.506   0.740   0.660 -0.5059 -0.1303 -0.9073
 4245SOL    HW116168   3.499   0.687   0.740 -2.4007  0.8476 -0.3942
 4245SOL    HW216169   3.586   0.710   0.618 -0.3921 -1.8645  0.5016
 4245SOL     MW16170   3.515   0.729   0.665 -0.7339 -0.2271 -0.6613
 4246SOL     OW16171   1.061   4.425   2.692  0.4806 -0.0820 -0.2461
 4246SOL    HW116172   0.996   4.470   2.636  0.4872  0.2804  0.0325
 4246SOL    HW216173   1.011   4.356   2.735  0.3450  0.0059 -0.2596
 4246SOL     MW16174   1.046   4.422   2.690  0.4642 -0.0238 -0.2120
 4247SOL     OW16175   5.124   3.730   2.894  0.4583 -0.1872 -0.0337
 4247SOL    HW116176   5.108   3.654   2.839  0.6199 -0.5100  0.3625
 4247SOL    HW216177   5.211   3.761   2.868  0.2785  0.0246 -0.3836
 4247SOL     MW16178   5.133   3.724   2.884  0.4559 -0.2015 -0.0279
 4248SOL     OW16179   3.929   2.581   4.714 -0.0439 -0.1181  0.5036
 4248SOL    HW116180   3.892   2.665   4.686  0.3824 -0.8898 -2.6090
 4248SOL    HW216181   3.853   2.524   4.725 -0.1337 -0.2254 -0.6263
 4248SOL     MW16182   3.914   2.584   4.712 -0.0012 -0.2308 -0.0391
 4249SOL     OW16183   2.144   3.563   5.518  0.2434  0.1106  0.0691
 4249SOL    HW116184   2.210   3.573   5.449  0.3477 -0.1483  0.1335
 4249SOL    HW216185   2.178   3.494   5.575  0.3698  0.6311  0.6302
 4249SOL     MW16186   2.156   3.555   5.516  0.2730  0.1442  0.1488
 4250SOL     OW16187   2.377   4.200   2.194 -0.5714 -1.0434 -0.0815
 4250SOL    HW116188   2.372   4.139   2.268  0.9805 -0.7950  0.2505
 4250SOL    HW216189   2.431   4.154   2.129 -0.1376 -0.3828 -0.1873
 4250SOL     MW16190   2.383   4.186   2.195 -0.3173 -0.9265 -0.0527
 4251SOL     OW16191   4.643   3.974   3.606 -0.1838  0.0126  0.0178
 4251SOL    HW116192   4.610   4.044   3.663  0.3163  0.2237  0.0503
 4251SOL    HW216193   4.675   3.907   3.666 -2.1696 -0.9829  0.0036
 4251SOL     MW16194   4.643   3.975   3.621 -0.3738 -0.0882  0.0203
 4252SOL     OW16195   5.288   3.361   4.347  0.2099  0.1952  0.2240
 4252SOL    HW116196   5.212   3.303   4.353 -1.3928  2.2185  0.3536
 4252SOL    HW216197   5.363   3.306   4.367 -1.2462 -1.8351  0.2220
 4252SOL     MW16198   5.288   3.346   4.350 -0.1817  0.1945  0.2408
 4253SOL     OW16199   4.025   0.667   0.966  0.6151 -0.4396  0.6852
 4253SOL    HW116200   4.005   0.675   1.060  0.0340 -0.4308  0.5610
 4253SOL    HW216201   4.111   0.707   0.957  0.5249 -0.1325  1.1582
 4253SOL     MW16202   4.034   0.673   0.977  0.5288 -0.3992  0.7299
 4254SOL     OW16203   3.827   3.567   1.459 -0.1234  0.7892  0.1824
 4254SOL    HW116204   3.890   3.596   1.393 -0.9879  1.0408 -0.5420
 4254SOL    HW216205   3.844   3.622   1.535 -0.2126  1.6301 -0.4006
 4254SOL     MW16206   3.837   3.578   1.460 -0.2456  0.9291  0.0150
 4255SOL     OW16207   2.092   3.866   4.105 -0.8424  0.0981  0.5168
 4255SOL    HW116208   2.014   3.844   4.156 -2.3162  3.6179 -0.0762
 4255SOL    HW216209   2.126   3.946   4.146  0.0925  0.8752 -1.7224
 4255SOL     MW16210   2.086   3.873   4.117 -0.9112  0.6483  0.1545
 4256SOL     OW16211   2.033   0.614   2.022  0.0947 -0.1598  0.6049
 4256SOL    HW116212   1.966   0.626   2.089 -1.7678  0.1901 -1.2924
 4256SOL    HW216213   2.008   0.673   1.951  1.4323 -1.3142 -0.8785
 4256SOL     MW16214   2.021   0.623   2.022  0.0274 -0.2628  0.1721
 4257SOL     OW16215   3.692   4.327   5.580  0.8447 -0.0280 -0.0866
 4257SOL    HW116216   3.610   4.350   5.537  2.1415  1.9025 -1.6253
 4257SOL    HW216217   3.715   4.404   5.632  1.9188 -0.3714 -0.0277
 4257SOL     MW16218   3.684   4.340   5.581  1.1480  0.1750 -0.2766
 4258SOL     OW16219   5.676   1.009   4.122  0.4669 -0.5802 -0.5159
 4258SOL    HW116220   5.620   0.933   4.103 -0.0250 -0.4463  0.3803
 4258SOL    HW216221   5.701   0.998   4.213  2.1901 -0.8110 -1.0034
 4258SOL     MW16222   5.672   0.998   4.131  0.6242 -0.5925 -0.4635
 4259SOL     OW16223   0.376   1.359   2.961 -0.2817  0.1273  0.3157
 4259SOL    HW116224   0.358   1.265   2.966  2.7834 -0.4769  1.4074
 4259SOL    HW216225   0.421   1.370   2.877 -1.9520  0.8826 -0.4888
 4259SOL     MW16226   0.380   1.348   2.951 -0.1031  0.1466  0.3524
 4260SOL     OW16227   5.739   3.963   3.703 -0.1569 -0.5136  0.5562
 4260SOL    HW116228   5.684   4.028   3.746  2.0426  0.3919  2.0989
 4260SOL    HW216229   5.776   4.009   3.628 -2.1776 -1.4069 -1.0468
 4260SOL     MW16230   5.737   3.977   3.699 -0.1345 -0.5119  0.5486
 4261SOL     OW16231   0.901   0.311   2.762 -0.0959  0.0797  0.1905
 4261SOL    HW116232   0.818   0.314   2.809  0.6254  0.1875  1.4708
 4261SOL    HW216233   0.967   0.334   2.828  0.7306  2.3362 -1.3632
 4261SOL     MW16234   0.899   0.314   2.776  0.1022  0.3824  0.1554
 4262SOL     OW16235   3.524   5.185   1.088  0.0513 -0.4905 -0.4519
 4262SOL    HW116236   3.497   5.170   0.997 -0.2521  0.7852 -0.5804
 4262SOL    HW216237   3.535   5.097   1.124  3.9611 -1.1177 -2.8297
 4262SOL     MW16238   3.522   5.172   1.081  0.5133 -0.4077 -0.7728
 4263SOL     OW16239   2.709   0.129   0.140  0.3124  0.0125 -0.0865
 4263SOL    HW116240   2.681   0.116   0.231 -1.1340  0.3720 -0.4668
 4263SOL    HW216241   2.770   0.058   0.123  0.1702 -0.3788  1.0003
 4263SOL     MW16242   2.713   0.118   0.150  0.1094  0.0084  0.0039
 4264SOL     OW16243   4.984   5.607   0.773  0.5082 -0.6710  0.3888
 4264SOL    HW116244   4.906   5.663   0.772  1.6702  0.9605  0.5273
 4264SOL    HW216245   4.956   5.527   0.819 -1.2158 -0.3103 -0.0043
 4264SOL     MW16246   4.970   5.604   0.778  0.4363 -0.4163  0.3561
 4265SOL     OW16247   4.224   4.015   4.242 -0.0672 -0.1567 -0.3124
 4265SOL    HW116248   4.277   4.096   4.242 -1.5463  0.8591  1.8561
 4265SOL    HW216249   4.171   4.021   4.162 -0.1812  1.0275 -0.1543
 4265SOL     MW16250   4.224   4.026   4.232 -0.2713  0.1249 -0.0148
 4266SOL     OW16251   4.601   5.205   3.621  0.0203  0.2504  0.0045
 4266SOL    HW116252   4.656   5.160   3.685 -2.8281 -1.2624  1.4684
 4266SOL    HW216253   4.657   5.216   3.544  2.7102 -0.1561  1.8452
 4266SOL     MW16254   4.615   5.201   3.619 -0.0005  0.0048  0.4275
 4267SOL     OW16255   4.769   4.987   3.288 -0.0062  0.0816  0.6062
 4267SOL    HW116256   4.755   4.968   3.195 -1.2274  0.0387  0.7919
 4267SOL    HW216257   4.703   4.936   3.333  0.4584  0.2558  1.4988
 4267SOL     MW16258   4.759   4.978   3.282 -0.1035  0.0987  0.7443
 4268SOL     OW16259   3.325   3.856   1.187 -0.3578 -0.1046 -0.4021
 4268SOL    HW116260   3.266   3.781   1.201  0.1476 -0.3838  0.2482
 4268SOL    HW216261   3.409   3.816   1.165  0.0412  0.2714  0.4411
 4268SOL     MW16262   3.328   3.841   1.186 -0.2420 -0.0923 -0.2109
 4269SOL     OW16263   2.554   5.100   3.087 -0.8486  0.0169  0.5497
 4269SOL    HW116264   2.615   5.162   3.126 -0.5232  1.5140 -2.1984
 4269SOL    HW216265   2.470   5.118   3.129 -0.4426  1.3619  0.7993
 4269SOL     MW16266   2.551   5.110   3.097 -0.7548  0.3805  0.2301
 4270SOL     OW16267   3.950   3.562   5.201  0.0735 -0.7281  0.0969
 4270SOL    HW116268   3.932   3.652   5.228  1.0043 -0.5867  0.2613
 4270SOL    HW216269   3.884   3.510   5.248 -2.2393  0.1090 -2.1356
 4270SOL     MW16270   3.940   3.567   5.211 -0.1035 -0.6027 -0.1674
 4271SOL     OW16271   5.783   3.680   1.596  0.7688 -0.4092  0.5148
 4271SOL    HW116272   5.694   3.714   1.607  0.7761  0.5639 -2.1714
 4271SOL    HW216273   5.797   3.627   1.674 -1.8872  0.0347  1.3685
 4271SOL     MW16274   5.773   3.677   1.607  0.4301 -0.2277  0.2803
 4272SOL     OW16275   2.894   4.195   2.148 -0.6516 -0.2417 -0.0819
 4272SOL    HW116276   2.958   4.250   2.102 -1.6648  0.0489 -1.1614
 4272SOL    HW216277   2.875   4.124   2.087  1.3448 -2.3770  1.6530
 4272SOL     MW16278   2.900   4.193   2.134 -0.5257 -0.4778  0.0021
 4273SOL     OW16279   1.123   2.943   1.261  0.5226 -0.6235  0.6354
 4273SOL    HW116280   1.036   2.930   1.224  0.5757 -2.0508  1.0102
 4273SOL    HW216281   1.112   2.926   1.355  1.0957 -0.2833  0.7659
 4273SOL     MW16282   1.111   2.939   1.268  0.6027 -0.7625  0.7000
 4274SOL     OW16283   1.217   1.306   3.764  0.0858 -0.5358  0.0663
 4274SOL    HW116284   1.203   1.226   3.815 -0.8764 -0.4713 -0.0798
 4274SOL    HW216285   1.153   1.299   3.693 -0.8703  0.9406  0.7520
 4274SOL     MW16286   1.207   1.294   3.762 -0.1597 -0.3384  0.1352
 4275SOL     OW16287   2.546   5.162   5.208  0.1572 -0.1473 -0.3976
 4275SOL    HW116288   2.607   5.236   5.208  0.0010  0.0461  2.1459
 4275SOL    HW216289   2.589   5.095   5.156  1.5325  0.7743 -0.4865
 4275SOL     MW16290   2.559   5.163   5.202  0.3130 -0.0048 -0.0834
 4276SOL     OW16291   3.224   3.929   1.438  0.0851  0.5109 -0.0627
 4276SOL    HW116292   3.288   3.889   1.379 -0.9263  0.0976 -0.8910
 4276SOL    HW216293   3.277   3.980   1.499  1.0955  2.1708 -2.2237
 4276SOL     MW16294   3.239   3.930   1.438  0.0849  0.6704 -0.4455
 4277SOL     OW16295   3.085   4.794   3.567  0.2404  0.6130  0.2840
 4277SOL    HW116296   3.144   4.733   3.523 -2.0549 -2.2415  1.0675
 4277SOL    HW216297   3.123   4.806   3.654  1.1360  1.0051 -0.1491
 4277SOL     MW16298   3.097   4.788   3.573  0.0610  0.2975  0.3288
 4278SOL     OW16299   5.261   1.944   0.140  0.1963 -0.0303  0.3847
 4278SOL    HW116300   5.245   1.991   0.222  1.8014 -0.4436  0.9505
 4278SOL    HW216301   5.352   1.916   0.146  0.8169  1.3217 -2.2450
 4278SOL     MW16302   5.270   1.947   0.151  0.4816  0.0899  0.1205
 4279SOL     OW16303   3.531   5.576   5.778 -0.0311  0.7790 -0.8691
 4279SOL    HW116304   3.581   5.655   5.795 -0.2131  0.8763 -0.7842
 4279SOL    HW216305   3.572   5.538   5.700 -0.7843  1.6621 -1.7029
 4279SOL     MW16306   3.543   5.581   5.770 -0.1509  0.9046 -0.9646
 4280SOL     OW16307   4.598   0.290   3.440 -0.1124 -0.4315  0.3441
 4280SOL    HW116308   4.527   0.320   3.384 -1.2949  1.1980  2.6375
 4280SOL    HW216309   4.558   0.222   3.494  0.6141 -0.9388  0.2465
 4280SOL     MW16310   4.584   0.285   3.440 -0.1702 -0.2879  0.6249
 4281SOL     OW16311   0.792   5.732   1.429  0.3747  0.5680  0.2325
 4281SOL    HW116312   0.797   5.804   1.492 -0.0736 -0.5831  1.6129
 4281SOL    HW216313   0.830   5.657   1.475  1.5846  0.0887 -1.4651
 4281SOL     MW16314   0.798   5.732   1.443  0.4722  0.3591  0.1920
 4282SOL     OW16315   4.429   4.075   1.314  0.7023 -0.2433  0.0997
 4282SOL    HW116316   4.403   3.999   1.366  0.9999  0.1234  0.7869
 4282SOL    HW216317   4.350   4.098   1.265  0.1186  0.0028  1.1286
 4282SOL     MW16318   4.415   4.069   1.314  0.6657 -0.1650  0.3194
 4283SOL     OW16319   1.677   0.636   4.994  0.3300 -0.0195 -0.4541
 4283SOL    HW116320   1.626   0.556   4.986 -2.1911  1.6502 -1.5873
 4283SOL    HW216321   1.758   0.608   5.038 -2.1685 -2.4905  2.9012
 4283SOL     MW16322   1.681   0.622   4.999 -0.3126 -0.1221 -0.1693
 4284SOL     OW16323   3.580   3.268   5.259  0.0289 -0.1641  0.7788
 4284SOL    HW116324   3.602   3.261   5.167 -2.6816  0.2236  0.0457
 4284SOL    HW216325   3.586   3.362   5.278 -0.2096 -0.1498  0.7827
 4284SOL     MW16326   3.583   3.279   5.250 -0.3483 -0.1128  0.6852
 4285SOL     OW16327   2.826   0.542   5.756 -0.0563  0.3008 -0.1831
 4285SOL    HW116328   2.876   0.619   5.729 -0.6037  0.3030 -1.1865
 4285SOL    HW216329   2.750   0.540   5.698 -1.1555  0.2152  1.2379
 4285SOL     MW16330   2.823   0.551   5.745 -0.2670  0.2901 -0.1297
 4286SOL     OW16331   2.518   3.091   5.821 -0.4742 -0.9956  0.5145
 4286SOL    HW116332   2.472   3.133   5.894 -0.1441  0.6051 -0.1650
 4286SOL    HW216333   2.603   3.135   5.818 -0.6261 -0.7843 -1.0613
 4286SOL     MW16334   2.523   3.102   5.830 -0.4513 -0.7637  0.2255
 4287SOL     OW16335   3.914   1.902   0.941  0.0416 -0.7310 -0.0127
 4287SOL    HW116336   3.921   1.872   0.850  0.7063 -0.4360 -0.0628
 4287SOL    HW216337   3.841   1.964   0.940 -0.3253 -1.1565 -0.2261
 4287SOL     MW16338   3.906   1.906   0.929  0.0796 -0.7477 -0.0464
 4288SOL     OW16339   5.070   5.590   5.782 -0.3113  0.6013  0.3635
 4288SOL    HW116340   4.995   5.641   5.812  0.7766  3.5124 -1.5508
 4288SOL    HW216341   5.107   5.643   5.711  1.3014 -2.6010 -1.2750
 4288SOL     MW16342   5.065   5.604   5.777  0.0343  0.5636 -0.0916
 4289SOL     OW16343   5.112   2.196   0.790  0.4510  0.1047  0.2498
 4289SOL    HW116344   5.068   2.177   0.708  0.8489  1.6885 -0.3434
 4289SOL    HW216345   5.179   2.128   0.798  0.8168  0.3023 -1.0528
 4289SOL     MW16346   5.115   2.185   0.781  0.5484  0.3326  0.0072
 4290SOL     OW16347   3.255   3.329   3.753  0.7170 -0.0566 -0.2959
 4290SOL    HW116348   3.261   3.306   3.661 -0.4644 -1.2534 -0.0824
 4290SOL    HW216349   3.215   3.252   3.795 -0.1197  1.0463  0.9722
 4290SOL     MW16350   3.251   3.316   3.747  0.4590 -0.0682 -0.1063
 4291SOL     OW16351   4.892   3.229   5.716  0.2194 -0.2318  0.6264
 4291SOL    HW116352   4.902   3.247   5.623 -0.8724  0.5371  0.6491
 4291SOL    HW216353   4.866   3.137   5.721 -2.1479  0.3792  0.0115
 4291SOL     MW16354   4.890   3.220   5.705 -0.2232 -0.0553  0.5503
 4292SOL     OW16355   4.749   1.627   1.415  0.2796  0.7230  0.4128
 4292SOL    HW116356   4.735   1.549   1.468 -1.0999  1.1407  0.6865
 4292SOL    HW216357   4.699   1.695   1.460  1.2651  1.7024  0.0361
 4292SOL     MW16358   4.741   1.626   1.428  0.2298  0.9018  0.3996
 4293SOL     OW16359   3.597   3.363   2.176 -0.3768 -0.6133  0.7088
 4293SOL    HW116360   3.677   3.384   2.225  0.1835 -0.1966 -0.3559
 4293SOL    HW216361   3.553   3.446   2.165  0.1129 -0.5124 -0.5381
 4293SOL     MW16362   3.602   3.376   2.181 -0.2422 -0.5469  0.4129
 4294SOL     OW16363   3.625   0.555   2.435  0.0865 -0.3825  0.0904
 4294SOL    HW116364   3.700   0.572   2.377 -0.1446 -1.7777 -0.6449
 4294SOL    HW216365   3.567   0.630   2.422  0.6153 -0.0811 -0.5613
 4294SOL     MW16366   3.627   0.567   2.426  0.1247 -0.5226 -0.0873
 4295SOL     OW16367   1.878   2.475   2.827 -0.4159 -0.3603  0.0206
 4295SOL    HW116368   1.784   2.466   2.812 -0.3604 -0.8111 -0.0824
 4295SOL    HW216369   1.888   2.460   2.922 -0.4375 -0.4274  0.0130
 4295SOL     MW16370   1.867   2.472   2.838 -0.4117 -0.4265  0.0064
 4296SOL     OW16371   0.050   5.045   3.571  0.0947  0.5002  0.0460
 4296SOL    HW116372   0.063   5.046   3.666  0.1922  0.6739  0.0292
 4296SOL    HW216373   0.100   5.119   3.539  0.4986  0.1209 -0.2019
 4296SOL     MW16374   0.058   5.054   3.579  0.1589  0.4730  0.0124
 4297SOL     OW16375   4.334   2.858   4.124 -0.1184 -0.0624 -0.1500
 4297SOL    HW116376   4.266   2.891   4.067  1.2853  0.7360 -1.3980
 4297SOL    HW216377   4.360   2.933   4.177  0.2373 -0.1960 -0.1296
 4297SOL     MW16378   4.329   2.871   4.124  0.1063  0.0226 -0.3071
 4298SOL     OW16379   1.604   3.188   2.161 -0.0909 -0.0273 -0.2874
 4298SOL    HW116380   1.693   3.168   2.133 -0.1214  2.3786 -2.2063
 4298SOL    HW216381   1.615   3.262   2.221 -0.7620 -0.1304 -0.0396
 4298SOL     MW16382   1.617   3.195   2.165 -0.1808  0.2677 -0.5016
 4299SOL     OW16383   0.505   3.413   2.379  0.3730 -0.2102  0.1153
 4299SOL    HW116384   0.463   3.392   2.296  3.0323  0.1938 -1.3724
 4299SOL    HW216385   0.462   3.355   2.443 -1.4205 -0.7925 -1.5726
 4299SOL     MW16386   0.494   3.403   2.377  0.4838 -0.2329 -0.2913
 4300SOL     OW16387   3.190   1.401   2.838  0.3327  0.5574 -0.2249
 4300SOL    HW116388   3.273   1.445   2.855 -0.5441  2.0253  0.3532
 4300SOL    HW216389   3.125   1.471   2.837 -0.8071 -0.4693 -1.4483
 4300SOL     MW16390   3.193   1.415   2.840  0.0744  0.6138 -0.3073
 4301SOL     OW16391   4.801   1.047   0.208  0.0838 -0.1087 -0.4016
 4301SOL    HW116392   4.824   1.132   0.171  0.2050  0.9053  1.9097
 4301SOL    HW216393   4.713   1.059   0.244  0.7603 -0.4341  1.4293
 4301SOL     MW16394   4.793   1.059   0.208  0.1864 -0.0205  0.1287
 4302SOL     OW16395   1.186   3.318   5.601 -0.0145  0.1935 -0.0884
 4302SOL    HW116396   1.126   3.311   5.527  0.1160 -1.9971 -0.0175
 4302SOL    HW216397   1.200   3.227   5.629  3.6864  0.6157 -0.3790
 4302SOL     MW16398   1.180   3.305   5.595  0.4759 -0.0329 -0.1168
 4303SOL     OW16399   1.893   4.956   2.726  0.0068  0.4405 -0.0639
 4303SOL    HW116400   1.839   4.887   2.765  2.4532 -1.8077 -0.4864
 4303SOL    HW216401   1.869   4.955   2.633  0.5973 -0.3700 -0.2067
 4303SOL     MW16402   1.883   4.947   2.719  0.3955  0.0491 -0.1364
 4304SOL     OW16403   2.575   3.479   5.330  0.1578  0.5030 -0.7192
 4304SOL    HW116404   2.534   3.398   5.362 -3.3973  2.4294 -0.0615
 4304SOL    HW216405   2.669   3.466   5.343 -0.6479 -1.7244  3.7102
 4304SOL     MW16406   2.582   3.467   5.336 -0.4008  0.4647 -0.0682
 4305SOL     OW16407   3.499   0.632   5.645 -0.8623  0.5216  0.4746
 4305SOL    HW116408   3.420   0.579   5.653 -0.6203  0.0838 -0.0211
 4305SOL    HW216409   3.532   0.614   5.557 -0.2980  0.8217  0.6186
 4305SOL     MW16410   3.493   0.623   5.635 -0.7591  0.5040  0.4296
 4306SOL     OW16411   5.471   2.303   3.228 -0.3092  0.1594  0.0553
 4306SOL    HW116412   5.519   2.378   3.193  1.1220 -1.2355 -1.0297
 4306SOL    HW216413   5.533   2.230   3.225 -2.6452 -1.8679 -2.0290
 4306SOL     MW16414   5.485   2.303   3.223 -0.4249 -0.2785 -0.3507
 4307SOL     OW16415   4.757   4.430   0.454 -0.6545  0.1144 -0.1077
 4307SOL    HW116416   4.676   4.379   0.449 -0.5775  0.0756 -0.9399
 4307SOL    HW216417   4.759   4.463   0.544 -0.3760 -1.8963  0.6427
 4307SOL     MW16418   4.747   4.428   0.465 -0.6089 -0.1483 -0.1182
 4308SOL     OW16419   3.461   0.757   2.347 -0.2471 -0.1684  0.3252
 4308SOL    HW116420   3.426   0.744   2.258  0.8148  0.2423 -0.1571
 4308SOL    HW216421   3.504   0.842   2.343  0.4573 -0.4960  1.0341
 4308SOL     MW16422   3.462   0.766   2.335 -0.0212 -0.1577  0.3545
 4309SOL     OW16423   1.305   1.993   5.682 -0.1749  0.7840  0.1337
 4309SOL    HW116424   1.301   1.921   5.745 -2.7560  0.6333 -0.1546
 4309SOL    HW216425   1.224   1.985   5.631  0.3781  2.7956 -1.1161
 4309SOL     MW16426   1.294   1.983   5.684 -0.4346  1.0223 -0.0639
 4310SOL     OW16427   3.264   4.833   2.820 -0.1473  0.4726 -0.5084
 4310SOL    HW116428   3.302   4.774   2.755 -0.1310 -0.7846  0.6269
 4310SOL    HW216429   3.237   4.910   2.770 -1.4332 -1.0741 -2.2240
 4310SOL     MW16430   3.265   4.836   2.806 -0.3097  0.1135 -0.5827
 4311SOL     OW16431   4.702   3.406   1.720  1.0338 -0.1003  0.1628
 4311SOL    HW116432   4.649   3.336   1.681  1.2109 -0.6071  0.8273
 4311SOL    HW216433   4.784   3.363   1.746  1.6396  0.6004 -0.5309
 4311SOL     MW16434   4.706   3.392   1.718  1.1339 -0.0756  0.1590
 4312SOL     OW16435   2.953   3.195   0.121 -0.1264  0.0250  0.4591
 4312SOL    HW116436   2.991   3.258   0.182  3.3269 -0.7705 -0.7633
 4312SOL    HW216437   2.972   3.110   0.161  0.1815 -0.4166 -0.6300
 4312SOL     MW16438   2.960   3.192   0.134  0.3552 -0.1333  0.1632
 4313SOL     OW16439   4.362   0.148   1.058 -0.4215  0.0025  0.8917
 4313SOL    HW116440   4.383   0.143   1.152  1.6678  0.7260  0.4807
 4313SOL    HW216441   4.352   0.241   1.041  1.5832  0.0433 -0.1041
 4313SOL     MW16442   4.363   0.159   1.068  0.1030  0.1004  0.7118
 4314SOL     OW16443   3.969   0.455   1.699 -0.0103  0.5632  0.0690
 4314SOL    HW116444   3.942   0.364   1.707  2.4438 -0.4379 -1.9822
 4314SOL    HW216445   3.917   0.489   1.626 -1.0391  0.8395  0.9367
 4314SOL     MW16446   3.959   0.448   1.690  0.1724  0.4704 -0.0826
 4315SOL     OW16447   3.451   1.702   2.047  0.4375 -0.3159  0.2777
 4315SOL    HW116448   3.405   1.780   2.078 -0.3470 -0.8786  0.5445
 4315SOL    HW216449   3.381   1.638   2.031  0.8792 -0.2831 -1.9408
 4315SOL     MW16450   3.436   1.703   2.049  0.3936 -0.3836  0.0279
 4316SOL     OW16451   4.447   5.478   4.805  0.2089 -0.0663 -0.4686
 4316SOL    HW116452   4.395   5.479   4.886  0.3680 -0.4909 -0.3609
 4316SOL    HW216453   4.385   5.449   4.738  0.1572 -0.0193 -0.4416
 4316SOL     MW16454   4.432   5.475   4.807  0.2222 -0.1149 -0.4516
 4317SOL     OW16455   2.745   5.835   0.015 -0.0830 -0.1041 -0.2435
 4317SOL    HW116456   2.831   5.858   0.050 -0.4252 -1.4398  1.5704
 4317SOL    HW216457   2.746   5.740   0.010 -2.2372 -0.2978  1.9647
 4317SOL     MW16458   2.756   5.826   0.019 -0.4029 -0.2999  0.2713
 4318SOL     OW16459   3.777   4.164   1.060 -0.3331  0.2058 -0.0865
 4318SOL    HW116460   3.777   4.073   1.089  0.5660  0.3647  0.4239
 4318SOL    HW216461   3.829   4.163   0.980 -0.1616  0.2967  0.0229
 4318SOL     MW16462   3.783   4.152   1.054 -0.1962  0.2375 -0.0072
 4319SOL     OW16463   5.414   4.194   5.694  0.1574  0.3569 -0.4909
 4319SOL    HW116464   5.407   4.189   5.599  0.6466 -0.4861 -0.4920
 4319SOL    HW216465   5.374   4.278   5.717 -0.2155  0.4396 -1.4117
 4319SOL     MW16466   5.408   4.204   5.685  0.1721  0.2594 -0.6089
 4320SOL     OW16467   0.527   1.672   1.289  0.1646 -0.3088 -0.0102
 4320SOL    HW116468   0.485   1.749   1.249 -0.6365 -0.8537 -0.2340
 4320SOL    HW216469   0.614   1.668   1.248  0.0654  0.2542 -0.2782
 4320SOL     MW16470   0.533   1.681   1.278  0.0493 -0.3064 -0.0730
 4321SOL     OW16471   0.119   0.366   1.643 -0.2820 -0.3544 -0.4892
 4321SOL    HW116472   0.059   0.292   1.659 -0.2459 -0.2950 -0.0800
 4321SOL    HW216473   0.061   0.440   1.624 -0.3404 -0.2843 -0.0391
 4321SOL     MW16474   0.104   0.366   1.643 -0.2848 -0.3378 -0.3791
 4322SOL     OW16475   2.647   3.604   3.435 -0.3706  0.4894  0.6601
 4322SOL    HW116476   2.655   3.522   3.387  1.2663  0.6662  0.5997
 4322SOL    HW216477   2.725   3.654   3.410  0.2012  0.8415  3.0262
 4322SOL     MW16478   2.658   3.600   3.426 -0.0880  0.5572  0.9551
 4323SOL     OW16479   0.584   4.103   3.426  0.4152 -0.6655 -0.8603
 4323SOL    HW116480   0.600   4.197   3.424 -0.8392 -0.4348 -0.3828
 4323SOL    HW216481   0.671   4.064   3.435  0.6792  0.5649  2.2695
 4323SOL     MW16482   0.597   4.110   3.427  0.2884 -0.4787 -0.3989
 4324SOL     OW16483   0.099   2.260   4.289 -0.2146 -0.2800 -0.4443
 4324SOL    HW116484   0.143   2.320   4.349 -0.1108 -0.7396 -0.0602
 4324SOL    HW216485   0.145   2.177   4.300 -0.3823 -0.4427 -0.9503
 4324SOL     MW16486   0.111   2.257   4.298 -0.2228 -0.3593 -0.4597
 4325SOL     OW16487   4.711   2.100   5.657 -0.1112 -0.0913 -0.5066
 4325SOL    HW116488   4.796   2.137   5.633  0.0595  1.2636  1.9469
 4325SOL    HW216489   4.651   2.174   5.654 -0.6242 -0.4568  0.4706
 4325SOL     MW16490   4.715   2.114   5.654 -0.1550  0.0353 -0.0672
 4326SOL     OW16491   1.124   4.346   3.227  0.0559  0.1935 -0.1072
 4326SOL    HW116492   1.084   4.267   3.189 -2.2593  0.1883  2.1735
 4326SOL    HW216493   1.074   4.418   3.189 -1.6377  0.2294  2.0315
 4326SOL     MW16494   1.112   4.345   3.217 -0.4573  0.1965  0.4585
 4327SOL     OW16495   1.376   4.716   3.054  0.2603  1.1352 -0.2810
 4327SOL    HW116496   1.348   4.633   3.016  1.6699  0.2918  0.4804
 4327SOL    HW216497   1.423   4.761   2.983  1.5782  0.2186 -0.0081
 4327SOL     MW16498   1.379   4.711   3.040  0.6094  0.9103 -0.1488
 4328SOL     OW16499   5.437   4.061   1.650  0.0557 -0.3462  0.4939
 4328SOL    HW116500   5.530   4.065   1.625  0.1068  0.5846  0.8298
 4328SOL    HW216501   5.431   3.983   1.706  0.3710 -1.1678 -0.6128
 4328SOL     MW16502   5.448   4.052   1.654  0.1020 -0.3324  0.3953
 4329SOL     OW16503   4.557   3.876   4.060 -0.0381  0.2796 -0.4963
 4329SOL    HW116504   4.540   3.969   4.042  1.2705  0.7890  0.7811
 4329SOL    HW216505   4.621   3.850   3.994  3.2898  1.6260  2.0826
 4329SOL     MW16506   4.563   3.885   4.050  0.5555  0.5174 -0.0024
 4330SOL     OW16507   2.115   5.084   2.981 -0.0381  0.5742  0.3408
 4330SOL    HW116508   2.134   5.011   2.923 -0.0562  0.7638  0.0964
 4330SOL    HW216509   2.134   5.162   2.929  1.8382  0.7254  1.2279
 4330SOL     MW16510   2.120   5.085   2.967  0.1998  0.6175  0.4230
 4331SOL     OW16511   5.724   0.241   1.513 -0.7656 -0.0278  0.1396
 4331SOL    HW116512   5.798   0.233   1.574 -0.9097 -2.8783 -0.0216
 4331SOL    HW216513   5.653   0.278   1.565  0.3508  1.5307  0.6102
 4331SOL     MW16514   5.725   0.245   1.527 -0.6413 -0.1932  0.1792
 4332SOL     OW16515   4.398   1.044   2.603  0.0005  0.3249 -0.1273
 4332SOL    HW116516   4.445   0.986   2.543 -0.1419 -0.5962  0.6483
 4332SOL    HW216517   4.341   0.986   2.654 -1.0140  1.2720 -0.1429
 4332SOL     MW16518   4.396   1.030   2.602 -0.1478  0.3282 -0.0298
 4333SOL     OW16519   5.888   2.961   1.886  0.3521  0.3182 -0.1876
 4333SOL    HW116520   5.931   2.937   1.968 -1.8485 -0.0425  0.8978
 4333SOL    HW216521   5.853   2.878   1.853  1.4724  0.4159 -1.6581
 4333SOL     MW16522   5.889   2.947   1.892  0.2141  0.2849 -0.2369
 4334SOL     OW16523   2.102   0.565   1.489 -0.1873  0.9240  0.3624
 4334SOL    HW116524   2.014   0.529   1.501 -0.6888  2.1821  0.5337
 4334SOL    HW216525   2.154   0.526   1.559 -0.4271 -0.3674 -0.1532
 4334SOL     MW16526   2.097   0.555   1.499 -0.2820  0.9197  0.3183
 4335SOL     OW16527   1.400   1.224   4.069 -0.1140 -0.4605 -1.1043
 4335SOL    HW116528   1.318   1.265   4.098 -1.1001 -0.1200 -4.1445
 4335SOL    HW216529   1.449   1.209   4.149 -1.6734  2.5278  0.5048
 4335SOL     MW16530   1.396   1.228   4.083 -0.4399 -0.0345 -1.2879
 4336SOL     OW16531   5.773   0.384   3.499 -0.0725 -0.3307 -0.2405
 4336SOL    HW116532   5.766   0.360   3.406 -0.3957 -1.3625  0.0470
 4336SOL    HW216533   5.687   0.364   3.535  0.3696 -0.9065  0.5024
 4336SOL     MW16534   5.761   0.378   3.491 -0.0572 -0.5365 -0.1090
 4337SOL     OW16535   0.654   4.244   4.875 -0.4656  0.0444 -0.1662
 4337SOL    HW116536   0.702   4.240   4.958 -0.4554 -0.2361 -0.1866
 4337SOL    HW216537   0.562   4.249   4.901 -0.6051 -2.0254 -0.1502
 4337SOL     MW16538   0.648   4.244   4.889 -0.4821 -0.2561 -0.1669
 4338SOL     OW16539   5.091   5.907   5.158 -0.1442  0.7066 -0.1730
 4338SOL    HW116540   5.113   5.817   5.183 -3.1904 -0.7345 -2.4089
 4338SOL    HW216541   5.024   5.934   5.220  0.6741  1.4379  0.4150
 4338SOL     MW16542   5.085   5.899   5.169 -0.4292  0.6156 -0.3843
 4339SOL     OW16543   1.712   5.490   4.264 -0.1137 -0.5155  0.0432
 4339SOL    HW116544   1.786   5.551   4.260 -0.0954 -0.5574 -0.2513
 4339SOL    HW216545   1.688   5.487   4.356 -0.7379  0.6816 -0.0755
 4339SOL     MW16546   1.718   5.497   4.275 -0.1912 -0.3672 -0.0100
 4340SOL     OW16547   0.129   4.591   1.075 -0.4686 -0.5099 -0.4319
 4340SOL    HW116548   0.113   4.498   1.089  1.0110 -0.5420  1.2963
 4340SOL    HW216549   0.093   4.609   0.988 -0.5944 -2.7293 -0.8725
 4340SOL     MW16550   0.123   4.582   1.066 -0.2953 -0.7982 -0.2670
 4341SOL     OW16551   1.420   1.478   2.533  0.0240  0.1507  0.1285
 4341SOL    HW116552   1.506   1.469   2.492  0.0414 -0.5901  0.3098
 4341SOL    HW216553   1.364   1.514   2.464  0.6640  1.4081  0.2546
 4341SOL     MW16554   1.424   1.481   2.519  0.1080  0.2168  0.1678
 4342SOL     OW16555   1.347   5.932   3.927  0.0183  0.2298 -0.0662
 4342SOL    HW116556   1.311   6.019   3.906 -0.3868 -0.0805 -0.6506
 4342SOL    HW216557   1.297   5.905   4.004  0.0100  0.4340  0.0020
 4342SOL     MW16558   1.336   5.940   3.934 -0.0346  0.2155 -0.1321
 4343SOL     OW16559   4.772   3.352   4.266 -0.0883  0.0175  0.2391
 4343SOL    HW116560   4.768   3.441   4.300 -1.6005  0.7649 -1.7788
 4343SOL    HW216561   4.698   3.307   4.307 -0.0056  0.0051  0.3767
 4343SOL     MW16562   4.762   3.358   4.276 -0.2708  0.1116 -0.0019
 4344SOL     OW16563   3.452   2.869   4.956  0.4196 -0.3792 -0.1065
 4344SOL    HW116564   3.476   2.846   5.046 -0.3354 -1.3955 -0.1541
 4344SOL    HW216565   3.435   2.963   4.959 -1.1010 -0.6749  1.1675
 4344SOL     MW16566   3.452   2.878   4.968  0.1285 -0.5472  0.0505
 4345SOL     OW16567   1.498   1.039   3.757  0.1075  0.4888 -0.0777
 4345SOL    HW116568   1.445   1.024   3.679 -0.8812  1.6167  0.3699
 4345SOL    HW216569   1.589   1.026   3.728 -0.4503 -2.6858 -0.5656
 4345SOL     MW16570   1.503   1.035   3.744 -0.0904  0.2267 -0.0827
 4346SOL     OW16571   4.489   3.797   4.617 -0.2692 -0.2064 -0.0060
 4346SOL    HW116572   4.551   3.866   4.642 -2.5874  1.2799  1.9079
 4346SOL    HW216573   4.449   3.828   4.536  0.1189 -0.2741 -0.2261
 4346SOL     MW16574   4.492   3.809   4.610 -0.5164 -0.0246  0.2112
 4347SOL     OW16575   2.647   4.076   0.769 -0.4399 -0.1555  0.3133
 4347SOL    HW116576   2.606   4.094   0.685 -1.1450  0.9147  0.8743
 4347SOL    HW216577   2.642   4.159   0.816  0.3927 -0.6117  1.2265
 4347SOL     MW16578   2.641   4.089   0.764 -0.4234 -0.0768  0.5020
 4348SOL     OW16579   3.276   0.202   4.625 -0.7874  0.1548 -0.3140
 4348SOL    HW116580   3.356   0.151   4.614 -1.2934 -0.1455 -3.0765
 4348SOL    HW216581   3.242   0.177   4.711  1.3876 -0.6833  0.3082
 4348SOL     MW16582   3.282   0.192   4.635 -0.5739  0.0091 -0.5879
 4349SOL     OW16583   1.569   5.732   1.755 -0.0035 -0.1341 -0.8781
 4349SOL    HW116584   1.549   5.748   1.663  1.0691  0.4947 -0.9987
 4349SOL    HW216585   1.490   5.690   1.790 -0.2075 -0.8713 -2.2108
 4349SOL     MW16586   1.556   5.729   1.748  0.1076 -0.1483 -1.0643
 4350SOL     OW16587   2.885   0.081   4.908 -0.0666  0.6822 -0.3487
 4350SOL    HW116588   2.846   0.070   4.821 -1.4569 -0.0732  0.3488
 4350SOL    HW216589   2.958   0.018   4.909 -1.0441 -0.4786 -0.4037
 4350SOL     MW16590   2.889   0.071   4.897 -0.3695  0.4369 -0.2670
 4351SOL     OW16591   4.058   0.565   1.260  0.0265  0.0367 -0.9540
 4351SOL    HW116592   4.062   0.471   1.277 -0.2761  0.0309 -0.9140
 4351SOL    HW216593   4.039   0.604   1.345 -0.1417  0.1125 -1.0266
 4351SOL     MW16594   4.056   0.558   1.273 -0.0339  0.0457 -0.9582
 4352SOL     OW16595   3.674   2.306   0.126  0.2715 -0.1880 -0.0866
 4352SOL    HW116596   3.706   2.391   0.158 -0.8489  0.0258  0.5115
 4352SOL    HW216597   3.731   2.242   0.169  1.6535  0.2766 -1.1766
 4352SOL     MW16598   3.685   2.309   0.136  0.3052 -0.1011 -0.1495
 4353SOL     OW16599   0.246   2.984   5.091 -0.2574  0.4296  0.3025
 4353SOL    HW116600   0.304   2.952   5.022  0.7011  1.7082  0.5067
 4353SOL    HW216601   0.209   3.065   5.056 -1.2254  0.1140  0.5548
 4353SOL     MW16602   0.248   2.990   5.077 -0.2586  0.5531  0.3610
 4354SOL     OW16603   2.086   5.793   4.231 -0.0489  0.5766 -0.3760
 4354SOL    HW116604   2.045   5.732   4.292 -0.4656  0.4734 -0.7575
 4354SOL    HW216605   2.161   5.828   4.279  0.9418 -1.1692 -0.6067
 4354SOL     MW16606   2.090   5.790   4.245  0.0248  0.3400 -0.4544
 4355SOL     OW16607   2.794   1.949   2.275 -0.0697 -0.2479  0.0937
 4355SOL    HW116608   2.714   1.985   2.236 -0.0784  0.5385  0.8266
 4355SOL    HW216609   2.827   1.887   2.209  0.5630  1.9345 -1.7222
 4355SOL     MW16610   2.788   1.946   2.261  0.0100  0.1320 -0.0451
 4356SOL     OW16611   0.132   5.859   1.723 -0.1045  1.0729  0.5292
 4356SOL    HW116612   0.166   5.949   1.729  3.0520  0.0819 -1.4781
 4356SOL    HW216613   0.105   5.850   1.632  0.6387 -0.3557  0.4357
 4356SOL     MW16614   0.133   5.870   1.712  0.3947  0.7629  0.2604
 4357SOL     OW16615   5.460   3.185   2.530  0.0205 -0.4138 -0.7160
 4357SOL    HW116616   5.515   3.172   2.453  1.4521 -0.1866  0.2495
 4357SOL    HW216617   5.398   3.112   2.528 -1.3525  0.7359 -3.2120
 4357SOL     MW16618   5.459   3.174   2.520  0.0277 -0.2375 -0.9120
 4358SOL     OW16619   5.845   4.592   2.864  0.0261  0.2135 -0.2474
 4358SOL    HW116620   5.815   4.514   2.819  0.9059 -2.5966  3.7453
 4358SOL    HW216621   5.764   4.638   2.889 -0.5981 -0.8618 -0.2786
 4358SOL     MW16622   5.831   4.588   2.862  0.0587 -0.2837  0.2596
 4359SOL     OW16623   1.980   1.194   2.456  0.6964  0.2252 -0.2045
 4359SOL    HW116624   1.981   1.260   2.387  1.5652 -0.3056 -0.7075
 4359SOL    HW216625   1.888   1.174   2.469  0.5153  0.5200 -1.0260
 4359SOL     MW16626   1.969   1.200   2.449  0.7844  0.1950 -0.3741
 4360SOL     OW16627   3.807   1.912   4.395 -0.0457 -0.5871  0.4912
 4360SOL    HW116628   3.849   1.983   4.444  2.5685 -0.9494 -1.1242
 4360SOL    HW216629   3.847   1.916   4.308 -2.3974 -1.8623 -0.6956
 4360SOL     MW16630   3.818   1.922   4.390 -0.0122 -0.7967  0.1330
 4361SOL     OW16631   1.267   2.413   4.958  0.5822  0.1016 -0.5037
 4361SOL    HW116632   1.259   2.492   4.905 -0.3036  0.0049 -0.5220
 4361SOL    HW216633   1.346   2.427   5.010  1.6834  0.0300 -2.1225
 4361SOL     MW16634   1.276   2.425   4.958  0.6098  0.0801 -0.7133
 4362SOL     OW16635   1.672   2.274   4.529  0.0127  0.0201 -0.1569
 4362SOL    HW116636   1.602   2.304   4.586  0.3392  0.5888 -0.0527
 4362SOL    HW216637   1.718   2.206   4.579  0.1000  0.2912  0.1289
 4362SOL     MW16638   1.669   2.269   4.543  0.0656  0.1276 -0.1073
 4363SOL     OW16639   0.756   4.196   2.037  0.1105 -0.0897  0.3349
 4363SOL    HW116640   0.752   4.185   2.132  0.0237  0.4462  0.3947
 4363SOL    HW216641   0.812   4.124   2.007  1.7442  0.8781  0.9973
 4363SOL     MW16642   0.763   4.185   2.046  0.3085  0.1030  0.4270
 4364SOL     OW16643   2.764   1.376   5.827  0.3428  0.1359  0.0396
 4364SOL    HW116644   2.791   1.347   5.740  1.7059 -2.8416  1.3745
 4364SOL    HW216645   2.844   1.374   5.879 -0.7071  0.5062  1.7091
 4364SOL     MW16646   2.778   1.372   5.822  0.3827 -0.1979  0.4244
 4365SOL     OW16647   3.673   0.624   5.349  0.7140  0.5811 -0.0251
 4365SOL    HW116648   3.673   0.703   5.294 -0.5856 -0.3947 -1.4820
 4365SOL    HW216649   3.753   0.631   5.401  1.9743  1.5654 -2.0232
 4365SOL     MW16650   3.683   0.635   5.348  0.7088  0.5822 -0.4673
 4366SOL     OW16651   1.826   0.836   0.153  0.2223  0.0048 -0.1532
 4366SOL    HW116652   1.794   0.879   0.231  1.2970 -0.0594  0.3321
 4366SOL    HW216653   1.888   0.770   0.185  1.0808  0.3410 -1.0746
 4366SOL     MW16654   1.830   0.833   0.167  0.4698  0.0396 -0.2090
 4367SOL     OW16655   2.905   1.342   3.317  0.4483  0.7266  0.3494
 4367SOL    HW116656   2.904   1.327   3.411  0.4315 -0.3726  0.1718
 4367SOL    HW216657   2.822   1.386   3.299 -1.8893 -3.6214  0.0960
 4367SOL     MW16658   2.894   1.346   3.327  0.1469  0.0292  0.2942
 4368SOL     OW16659   3.654   4.692   1.530  0.0984  0.0961  0.7169
 4368SOL    HW116660   3.712   4.654   1.595 -1.2038  1.3924  2.7072
 4368SOL    HW216661   3.682   4.784   1.524  1.0951 -0.3327 -1.5870
 4368SOL     MW16662   3.665   4.699   1.538  0.0596  0.2074  0.6769
 4369SOL     OW16663   0.115   4.248   0.819 -0.3536  0.1977  0.0514
 4369SOL    HW116664   0.188   4.305   0.792  0.9084 -1.7962 -0.9245
 4369SOL    HW216665   0.051   4.257   0.748  0.2564 -0.2906 -0.5756
 4369SOL     MW16666   0.116   4.257   0.806 -0.1140 -0.1202 -0.1538
 4370SOL     OW16667   3.161   3.845   3.755 -0.7354  0.0336  0.1410
 4370SOL    HW116668   3.130   3.756   3.769  0.9381 -0.9013 -1.8612
 4370SOL    HW216669   3.190   3.874   3.842 -0.9088 -1.5191  0.7267
 4370SOL     MW16670   3.161   3.838   3.768 -0.5431 -0.2849 -0.0403
 4371SOL     OW16671   0.863   5.605   5.318  0.1161 -0.3491  0.1472
 4371SOL    HW116672   0.875   5.545   5.391 -0.2568  0.2570  0.7169
 4371SOL    HW216673   0.905   5.562   5.244  0.1439 -1.1530  0.6258
 4371SOL     MW16674   0.870   5.592   5.318  0.0719 -0.3748  0.2813
 4372SOL     OW16675   3.363   2.844   5.671  0.3531 -0.7701 -0.0934
 4372SOL    HW116676   3.360   2.777   5.602 -0.5765 -1.6725  0.8083
 4372SOL    HW216677   3.283   2.895   5.658  0.8957 -0.0286 -0.5721
 4372SOL     MW16678   3.352   2.842   5.660  0.3035 -0.7908 -0.0396
 4373SOL     OW16679   3.307   0.456   5.231  0.4817 -0.5347  0.0379
 4373SOL    HW116680   3.307   0.418   5.319 -0.8527 -0.0379  0.2648
 4373SOL    HW216681   3.306   0.550   5.246 -0.9709 -0.4527 -0.4945
 4373SOL     MW16682   3.307   0.463   5.245  0.1249 -0.4606 -0.0010
 4374SOL     OW16683   4.121   0.318   3.125  0.5626  0.6485 -0.1158
 4374SOL    HW116684   4.115   0.397   3.072  1.1086  1.4371  0.9880
 4374SOL    HW216685   4.034   0.308   3.164  0.4156  0.5483 -0.4679
 4374SOL     MW16686   4.109   0.327   3.123  0.6137  0.7366 -0.0198
 4375SOL     OW16687   0.572   1.102   3.209  0.3808  0.0938 -0.2792
 4375SOL    HW116688   0.521   1.102   3.128 -0.3655 -1.4390  0.1683
 4375SOL    HW216689   0.561   1.190   3.245 -0.2287  0.4191 -1.2567
 4375SOL     MW16690   0.564   1.113   3.203  0.2073 -0.0607 -0.3471
 4376SOL     OW16691   1.986   2.065   0.492 -0.1662  0.0451  0.1817
 4376SOL    HW116692   2.002   2.083   0.584 -0.2185 -0.1233  0.2229
 4376SOL    HW216693   1.912   2.004   0.491  0.8775 -1.2433  0.1045
 4376SOL     MW16694   1.979   2.060   0.503 -0.0392 -0.1411  0.1771
 4377SOL     OW16695   1.533   3.082   5.103 -0.4466 -0.3364  0.5691
 4377SOL    HW116696   1.498   3.105   5.017 -0.7789 -2.2087  0.1704
 4377SOL    HW216697   1.483   3.135   5.165  1.1622  2.5128 -0.4987
 4377SOL     MW16698   1.522   3.091   5.100 -0.2834 -0.2112  0.3815
 4378SOL     OW16699   3.182   2.852   5.015 -0.0784 -0.0212 -0.1986
 4378SOL    HW116700   3.159   2.880   5.103  0.0897  1.1831 -0.5199
 4378SOL    HW216701   3.277   2.844   5.017 -0.3094 -2.9761  0.5587
 4378SOL     MW16702   3.191   2.855   5.026 -0.0865 -0.2453 -0.1431
 4379SOL     OW16703   4.329   5.629   3.552  0.2904  0.3049  0.3823
 4379SOL    HW116704   4.344   5.535   3.545  0.8986  0.4423 -0.1792
 4379SOL    HW216705   4.274   5.638   3.630 -0.9751 -0.6333 -0.3745
 4379SOL     MW16706   4.324   5.618   3.561  0.2065  0.2027  0.2134
 4380SOL     OW16707   1.645   1.171   3.457  0.0568 -0.1545  0.8038
 4380SOL    HW116708   1.551   1.158   3.443 -0.1157 -0.0012  1.7525
 4380SOL    HW216709   1.685   1.146   3.375 -0.7684 -0.8230  0.5966
 4380SOL     MW16710   1.638   1.166   3.445 -0.0708 -0.2205  0.8988
 4381SOL     OW16711   5.803   3.644   3.827 -0.2725 -0.0385 -0.8803
 4381SOL    HW116712   5.753   3.602   3.896 -0.9245  1.5060 -0.3930
 4381SOL    HW216713   5.838   3.571   3.776  0.4130 -1.2145  1.1906
 4381SOL     MW16714   5.801   3.629   3.829 -0.2680  0.0091 -0.5527
 4382SOL     OW16715   2.648   0.224   5.021 -0.3591 -0.1501 -0.2803
 4382SOL    HW116716   2.558   0.195   5.003  0.7249 -1.9367 -3.1693
 4382SOL    HW216717   2.703   0.155   4.985  2.2095  1.1446  1.0375
 4382SOL     MW16718   2.643   0.212   5.014  0.1085 -0.2131 -0.4816
 4383SOL     OW16719   2.956   4.967   4.159 -0.3591 -0.3345  0.0675
 4383SOL    HW116720   3.029   4.913   4.190  0.5596 -0.0192 -1.4728
 4383SOL    HW216721   2.999   5.043   4.120 -1.6050  0.9626  1.1896
 4383SOL     MW16722   2.971   4.970   4.158 -0.4010 -0.1278  0.0138
 4384SOL     OW16723   3.639   3.840   3.821 -0.0631 -0.1222 -0.0199
 4384SOL    HW116724   3.664   3.812   3.909  1.1768  0.2195 -0.2457
 4384SOL    HW216725   3.706   3.905   3.797  0.6479 -1.4991 -1.8881
 4384SOL     MW16726   3.651   3.845   3.829  0.1867 -0.2549 -0.2882
 4385SOL     OW16727   3.814   2.597   5.777 -0.2516 -0.6687 -0.2728
 4385SOL    HW116728   3.863   2.517   5.757  0.0681 -0.5637  0.0671
 4385SOL    HW216729   3.763   2.615   5.699 -3.2688 -3.3153  1.0164
 4385SOL     MW16730   3.814   2.589   5.765 -0.5968 -0.9940 -0.0639
 4386SOL     OW16731   1.222   1.675   1.842 -0.5084  0.0075 -0.0666
 4386SOL    HW116732   1.250   1.686   1.751  0.8491 -0.2621  0.3105
 4386SOL    HW216733   1.143   1.621   1.837  0.1523 -0.8764 -1.0124
 4386SOL     MW16734   1.215   1.670   1.830 -0.2501 -0.1401 -0.1394
 4387SOL     OW16735   3.141   2.843   4.042  0.3538 -0.1053  0.3746
 4387SOL    HW116736   3.188   2.765   4.073  1.7193 -0.1740 -1.8460
 4387SOL    HW216737   3.072   2.808   3.986  0.0490  0.2190  0.5458
 4387SOL     MW16738   3.138   2.829   4.039  0.4897 -0.0727  0.1121
 4388SOL     OW16739   4.046   4.082   4.432  0.3692  0.1690 -0.3655
 4388SOL    HW116740   4.095   4.057   4.354  1.0137  1.6014 -0.4327
 4388SOL    HW216741   3.957   4.049   4.415  0.7670 -0.4981 -1.2088
 4388SOL     MW16742   4.041   4.074   4.420  0.5026  0.2666 -0.4826
 4389SOL     OW16743   5.215   3.046   1.245 -0.3988  0.8385  0.9402
 4389SOL    HW116744   5.202   3.141   1.244  0.3246  0.9416  1.0021
 4389SOL    HW216745   5.282   3.032   1.312  0.9161  0.4756 -0.4180
 4389SOL     MW16746   5.222   3.056   1.253 -0.1378  0.8051  0.7743
 4390SOL     OW16747   4.636   3.029   0.176  0.3806 -0.1078 -0.0958
 4390SOL    HW116748   4.622   3.005   0.268  0.1112  1.2516  0.2419
 4390SOL    HW216749   4.608   2.953   0.126 -0.3993 -0.4969  0.9211
 4390SOL     MW16750   4.630   3.016   0.182  0.2465  0.0165  0.0776
 4391SOL     OW16751   4.957   4.503   3.140 -0.8045 -0.1231 -0.2708
 4391SOL    HW116752   4.953   4.411   3.112  1.3065 -0.3590  0.0981
 4391SOL    HW216753   4.914   4.551   3.070  1.5164 -1.0259 -2.4213
 4391SOL     MW16754   4.951   4.497   3.128 -0.2370 -0.2689 -0.4988
 4392SOL     OW16755   4.735   5.016   1.980  0.2177  0.5128 -0.0836
 4392SOL    HW116756   4.786   5.031   2.060 -0.2060 -0.4717  0.3920
 4392SOL    HW216757   4.769   4.933   1.946  0.6626  1.1339 -1.1407
 4392SOL     MW16758   4.745   5.007   1.986  0.2198  0.4663 -0.1581
 4393SOL     OW16759   5.662   2.969   4.511 -0.0302  0.3655 -0.3558
 4393SOL    HW116760   5.741   2.984   4.564 -0.4809 -0.5404  0.5815
 4393SOL    HW216761   5.661   3.042   4.450  1.0589  0.8784  0.2145
 4393SOL     MW16762   5.672   2.980   4.510  0.0515  0.3152 -0.1626
 4394SOL     OW16763   3.819   0.158   3.532 -0.0926 -0.3580 -0.3493
 4394SOL    HW116764   3.744   0.179   3.587 -0.9846 -0.0203 -1.6747
 4394SOL    HW216765   3.895   0.182   3.585 -0.9807  1.7711  0.0080
 4394SOL     MW16766   3.819   0.163   3.546 -0.3204 -0.0422 -0.4730
 4395SOL     OW16767   5.006   4.894   3.385 -0.2998 -0.0252 -0.4856
 4395SOL    HW116768   5.020   4.801   3.364  1.0622  0.3314 -1.2086
 4395SOL    HW216769   4.923   4.916   3.342 -1.9072 -1.5161  1.7093
 4395SOL     MW16770   4.997   4.885   3.377 -0.3314 -0.1702 -0.2975
 4396SOL     OW16771   1.188   0.638   1.101 -0.5508  0.3386  0.0400
 4396SOL    HW116772   1.144   0.585   1.167  0.6999 -0.5855  0.1716
 4396SOL    HW216773   1.263   0.584   1.074  1.3500  2.4498  0.9090
 4396SOL     MW16774   1.192   0.624   1.106 -0.1473  0.4906  0.1680
 4397SOL     OW16775   4.550   0.619   0.330  0.0264  0.0426  0.0649
 4397SOL    HW116776   4.478   0.560   0.308  0.1610 -0.3390  0.6313
 4397SOL    HW216777   4.509   0.689   0.381 -0.3436  1.1111 -1.6866
 4397SOL     MW16778   4.536   0.620   0.334 -0.0038  0.1305 -0.0868
 4398SOL     OW16779   5.761   3.204   0.097 -0.5894 -0.3647 -0.7593
 4398SOL    HW116780   5.708   3.127   0.075  0.1529 -1.2758  0.5743
 4398SOL    HW216781   5.696   3.270   0.121 -1.1610 -1.3755  0.5693
 4398SOL     MW16782   5.746   3.202   0.097 -0.5674 -0.6108 -0.4185
 4399SOL     OW16783   1.510   5.251   4.056 -0.0655  0.3014 -0.2156
 4399SOL    HW116784   1.466   5.312   4.116 -0.3881 -0.3463  0.2100
 4399SOL    HW216785   1.458   5.171   4.061  0.4345 -0.0545 -0.6810
 4399SOL     MW16786   1.498   5.249   4.064 -0.0429  0.1731 -0.2208
 4400SOL     OW16787   4.138   4.649   1.661  0.3180  0.1110  0.0618
 4400SOL    HW116788   4.051   4.687   1.649 -0.3477 -2.2014 -3.3272
 4400SOL    HW216789   4.143   4.628   1.754 -1.4519  3.2178  0.9042
 4400SOL     MW16790   4.128   4.651   1.671  0.0067  0.2131 -0.2640
 4401SOL     OW16791   5.514   1.515   1.302 -0.2567 -0.7272 -0.0851
 4401SOL    HW116792   5.511   1.580   1.232  0.0139 -0.6802 -0.0539
 4401SOL    HW216793   5.440   1.536   1.358 -0.1165 -0.3903 -0.0260
 4401SOL     MW16794   5.504   1.526   1.300 -0.2046 -0.6781 -0.0736
 4402SOL     OW16795   5.837   3.265   3.376 -0.2042 -0.2655  0.5297
 4402SOL    HW116796   5.870   3.343   3.331 -0.8266 -0.0809  0.3857
 4402SOL    HW216797   5.894   3.256   3.453  0.1921  0.0340  0.2758
 4402SOL     MW16798   5.849   3.274   3.380 -0.2332 -0.2036  0.4785
 4403SOL     OW16799   2.692   1.952   1.211  0.1318 -0.1161 -0.4971
 4403SOL    HW116800   2.770   1.992   1.251  0.4867 -0.9528 -0.3456
 4403SOL    HW216801   2.664   1.886   1.275  0.3766 -1.0807 -1.3848
 4403SOL     MW16802   2.699   1.949   1.225  0.2086 -0.3465 -0.5914
 4404SOL     OW16803   0.263   4.354   4.607  0.9919 -0.0765 -0.2169
 4404SOL    HW116804   0.280   4.265   4.638 -2.1166 -0.5305  0.3658
 4404SOL    HW216805   0.267   4.408   4.686 -0.5630 -0.2767  0.0322
 4404SOL     MW16806   0.266   4.349   4.621  0.3949 -0.1607 -0.1106
 4405SOL     OW16807   3.506   0.560   0.885  1.1552 -0.0861 -0.4158
 4405SOL    HW116808   3.600   0.566   0.869  1.1235  1.0899 -0.2007
 4405SOL    HW216809   3.474   0.499   0.819  1.8843  0.4374 -1.2637
 4405SOL     MW16810   3.514   0.553   0.875  1.2445  0.1314 -0.4968
 4406SOL     OW16811   3.404   2.941   1.259 -0.2615  0.2209 -0.4416
 4406SOL    HW116812   3.404   2.852   1.224  2.3535 -0.1355  0.4199
 4406SOL    HW216813   3.353   2.935   1.340  0.4865 -0.6208 -0.0357
 4406SOL     MW16814   3.397   2.929   1.265  0.1688  0.0675 -0.2793
 4407SOL     OW16815   2.750   2.685   2.288  0.2123 -0.4040 -0.1306
 4407SOL    HW116816   2.783   2.774   2.299  0.5441 -0.4585 -0.6467
 4407SOL    HW216817   2.829   2.630   2.294 -0.3915 -1.0012  3.9863
 4407SOL     MW16818   2.765   2.689   2.290  0.1774 -0.4873  0.3304
 4408SOL     OW16819   4.591   1.568   1.872  0.2610 -0.0341  0.8305
 4408SOL    HW116820   4.652   1.641   1.876 -0.8550  0.8032  3.1311
 4408SOL    HW216821   4.581   1.539   1.963 -2.7408 -0.1722  0.5061
 4408SOL     MW16822   4.597   1.573   1.884 -0.2666  0.0556  1.0833
 4409SOL     OW16823   3.581   2.294   2.277 -0.3391  0.0814  0.2121
 4409SOL    HW116824   3.489   2.317   2.293 -1.1882 -1.4065 -2.1695
 4409SOL    HW216825   3.603   2.232   2.346 -1.9495 -1.4807 -0.6230
 4409SOL     MW16826   3.572   2.289   2.288 -0.6537 -0.3090 -0.1998
 4410SOL     OW16827   2.876   5.134   2.242  0.0082 -0.5644  0.4333
 4410SOL    HW116828   2.927   5.056   2.219  1.6830 -0.0033  2.1367
 4410SOL    HW216829   2.839   5.114   2.328 -4.4938 -1.8135 -1.6468
 4410SOL     MW16830   2.877   5.121   2.250 -0.3541 -0.6523  0.3850
 4411SOL     OW16831   5.311   4.956   3.457 -0.4460  0.1267  0.0323
 4411SOL    HW116832   5.346   4.867   3.459 -0.2007  0.2368  1.2451
 4411SOL    HW216833   5.224   4.947   3.419 -0.5709 -0.6886  0.4853
 4411SOL     MW16834   5.305   4.943   3.453 -0.4306  0.0362  0.2453
 4412SOL     OW16835   1.254   2.679   1.454  0.1832 -0.0764  0.2912
 4412SOL    HW116836   1.245   2.637   1.540 -1.5607  0.9784  0.6558
 4412SOL    HW216837   1.185   2.639   1.401  1.6509 -1.1647 -0.8197
 4412SOL     MW16838   1.244   2.668   1.458  0.1477 -0.0811  0.1956
 4413SOL     OW16839   3.848   2.226   2.505 -0.3797 -0.1747  0.0230
 4413SOL    HW116840   3.940   2.216   2.480 -0.5170 -1.2695 -0.0790
 4413SOL    HW216841   3.821   2.308   2.464  0.4728  0.0100 -0.1828
 4413SOL     MW16842   3.856   2.235   2.497 -0.2880 -0.2913 -0.0165
 4414SOL     OW16843   3.990   0.109   4.564  0.6716  0.0074  0.4369
 4414SOL    HW116844   4.039   0.146   4.491 -1.4755  0.7530 -0.6478
 4414SOL    HW216845   3.987   0.179   4.629 -1.9098  1.2025 -0.9175
 4414SOL     MW16846   3.996   0.122   4.563  0.0663  0.2558  0.1245
 4415SOL     OW16847   5.520   3.050   0.592 -0.0103  0.7372 -0.3843
 4415SOL    HW116848   5.437   3.052   0.544 -0.4107  3.4213  0.2885
 4415SOL    HW216849   5.493   3.046   0.684  0.6443  0.3796 -0.2099
 4415SOL     MW16850   5.506   3.050   0.598  0.0224  1.0350 -0.2758
 4416SOL     OW16851   0.519   0.981   1.064  0.3549  0.2366 -0.4690
 4416SOL    HW116852   0.612   1.000   1.049  0.5702  1.8460  2.5487
 4416SOL    HW216853   0.518   0.925   1.142 -1.2653  1.2866  0.2806
 4416SOL     MW16854   0.531   0.976   1.072  0.1751  0.5770  0.0134
 4417SOL     OW16855   2.314   4.330   2.798  0.2072  0.0322 -0.4150
 4417SOL    HW116856   2.372   4.347   2.872  2.9991 -0.8434 -2.2887
 4417SOL    HW216857   2.306   4.234   2.795 -0.1776  0.0766 -1.0108
 4417SOL     MW16858   2.321   4.320   2.807  0.5152 -0.0739 -0.7312
 4418SOL     OW16859   4.475   3.983   3.372  0.0401  0.6926 -0.6972
 4418SOL    HW116860   4.481   4.075   3.347 -3.0991  1.1134 -0.0271
 4418SOL    HW216861   4.524   3.978   3.455  0.0426  1.7812 -0.6268
 4418SOL     MW16862   4.482   3.994   3.380 -0.3614  0.8860 -0.6022
 4419SOL     OW16863   4.642   3.893   5.784  0.1811 -0.3415  0.5171
 4419SOL    HW116864   4.554   3.890   5.821  0.7107  0.0286  1.8183
 4419SOL    HW216865   4.694   3.937   5.850  1.3100 -0.3869 -0.3368
 4419SOL     MW16866   4.637   3.898   5.797  0.3934 -0.2999  0.5746
 4420SOL     OW16867   4.440   5.569   1.751 -0.3094 -0.3087  0.1492
 4420SOL    HW116868   4.524   5.587   1.709 -0.3697 -0.6972 -0.1399
 4420SOL    HW216869   4.390   5.521   1.685 -0.0832 -1.7062  0.9774
 4420SOL     MW16870   4.444   5.565   1.737 -0.2890 -0.5369  0.2183
 4421SOL     OW16871   1.119   3.625   3.440  0.2174  0.1151 -0.4034
 4421SOL    HW116872   1.076   3.643   3.356 -1.8548 -0.6550  0.4744
 4421SOL    HW216873   1.154   3.536   3.430 -2.9893 -1.3176  0.7189
 4421SOL     MW16874   1.118   3.615   3.428 -0.4584 -0.1671 -0.1473
 4422SOL     OW16875   2.277   2.410   1.083  0.3280  0.0773  0.3499
 4422SOL    HW116876   2.242   2.332   1.040  2.4042 -0.5578 -0.2422
 4422SOL    HW216877   2.286   2.474   1.012 -0.5660  0.6022  0.6888
 4422SOL     MW16878   2.273   2.408   1.068  0.4795  0.0632  0.3175
 4423SOL     OW16879   3.879   3.022   4.280 -0.3692 -0.1766 -0.2823
 4423SOL    HW116880   3.894   2.937   4.323  3.4529  0.2386 -0.6857
 4423SOL    HW216881   3.849   3.079   4.350 -1.9889 -1.5597  0.1982
 4423SOL     MW16882   3.877   3.018   4.294 -0.0873 -0.3004 -0.2728
 4424SOL     OW16883   0.907   1.732   0.721  0.4698  0.1161 -0.3516
 4424SOL    HW116884   0.860   1.664   0.673 -0.9777  1.5084 -0.9242
 4424SOL    HW216885   0.996   1.698   0.728  0.2663 -0.9332 -2.4067
 4424SOL     MW16886   0.912   1.719   0.716  0.2584  0.1601 -0.6880
 4425SOL     OW16887   0.048   5.427   5.082  0.0803 -0.1355  0.2096
 4425SOL    HW116888   0.029   5.503   5.136 -3.3751 -0.6742 -0.1288
 4425SOL    HW216889  -0.033   5.412   5.033  2.4999 -0.7021 -3.8330
 4425SOL     MW16890   0.035   5.435   5.082 -0.0522 -0.2770 -0.3510
 4426SOL     OW16891   4.950   0.855   0.750 -0.0316  0.1766  0.1664
 4426SOL    HW116892   4.896   0.919   0.798 -0.1217 -2.7797  4.2454
 4426SOL    HW216893   5.035   0.859   0.793  0.1793 -1.8959 -0.0128
 4426SOL     MW16894   4.954   0.864   0.762 -0.0162 -0.4671  0.6657
 4427SOL     OW16895   5.057   1.269   4.936  0.7027 -0.2395  0.4019
 4427SOL    HW116896   4.968   1.302   4.920  1.1908  1.3244  0.7798
 4427SOL    HW216897   5.091   1.324   5.007  2.0553 -0.6693  0.1131
 4427SOL     MW16898   5.050   1.281   4.943  0.9384 -0.0945  0.4139
 4428SOL     OW16899   2.605   4.134   1.124 -0.0187 -0.4710 -0.5137
 4428SOL    HW116900   2.621   4.170   1.211 -0.1199 -0.6458 -0.4217
 4428SOL    HW216901   2.511   4.113   1.125 -0.3258  0.8275 -1.1481
 4428SOL     MW16902   2.595   4.136   1.136 -0.0710 -0.3276 -0.5832
 4429SOL     OW16903   1.367   2.707   0.904 -0.1683  0.1111  0.4522
 4429SOL    HW116904   1.347   2.615   0.923  1.8365 -0.2224  1.0710
 4429SOL    HW216905   1.460   2.707   0.883 -0.7910  1.5349 -2.6977
 4429SOL     MW16906   1.376   2.695   0.904  0.0086  0.2506  0.1283
 4430SOL     OW16907   2.797   3.337   2.537 -0.0946  0.2277  0.4316
 4430SOL    HW116908   2.710   3.317   2.572  0.3803 -0.6812  1.1195
 4430SOL    HW216909   2.850   3.259   2.557  0.9826  0.9271  0.3788
 4430SOL     MW16910   2.793   3.325   2.544  0.1040  0.2010  0.5131
 4431SOL     OW16911   3.798   4.328   4.920 -0.3638  0.9661 -0.1502
 4431SOL    HW116912   3.713   4.300   4.888  0.4906 -0.4495 -1.2191
 4431SOL    HW216913   3.818   4.406   4.869 -1.3867  1.8241  0.7196
 4431SOL     MW16914   3.790   4.335   4.910 -0.3855  0.8945 -0.1755
 4432SOL     OW16915   2.546   0.368   2.654  0.1387 -0.4310 -0.2318
 4432SOL    HW116916   2.617   0.409   2.604 -1.1514 -0.5021 -2.1285
 4432SOL    HW216917   2.480   0.437   2.662 -0.9561 -1.3679 -1.2263
 4432SOL     MW16918   2.547   0.382   2.649 -0.1664 -0.5600 -0.6018
 4433SOL     OW16919   2.422   3.822   4.953 -0.2545 -0.1271  0.3642
 4433SOL    HW116920   2.488   3.777   5.006  1.2566  0.3573 -1.1031
 4433SOL    HW216921   2.367   3.751   4.918  0.1881 -0.6026  0.6287
 4433SOL     MW16922   2.423   3.807   4.955 -0.0045 -0.1261  0.2103
 4434SOL     OW16923   5.533   5.826   2.261 -0.1452 -0.0473  0.0519
 4434SOL    HW116924   5.626   5.839   2.282 -0.4955  1.0890  0.9341
 4434SOL    HW216925   5.521   5.731   2.263  0.6711 -0.1373  1.4168
 4434SOL     MW16926   5.543   5.815   2.264 -0.0858  0.0863  0.3395
 4435SOL     OW16927   3.416   4.432   5.569  0.9423 -0.8567  0.2558
 4435SOL    HW116928   3.392   4.345   5.539 -1.5008 -0.4020  0.8186
 4435SOL    HW216929   3.433   4.422   5.663  0.4224 -0.6994  0.3704
 4435SOL     MW16930   3.415   4.420   5.577  0.5629 -0.7782  0.3428
 4436SOL     OW16931   3.216   1.085   4.835 -0.2361 -0.2963  0.3406
 4436SOL    HW116932   3.149   1.032   4.878 -0.6165  0.6956  0.9808
 4436SOL    HW216933   3.270   1.021   4.788 -1.7194 -1.0846 -0.3317
 4436SOL     MW16934   3.214   1.070   4.834 -0.4745 -0.2701  0.3371
 4437SOL     OW16935   5.228   5.594   4.782 -0.0532  0.0037  0.0381
 4437SOL    HW116936   5.184   5.510   4.796  0.2335 -0.1371  0.0970
 4437SOL    HW216937   5.228   5.605   4.687 -0.7813  0.3068  0.0718
 4437SOL     MW16938   5.222   5.585   4.771 -0.1097  0.0243  0.0501
 4438SOL     OW16939   1.805   4.340   2.259 -0.5983 -0.4873 -0.1639
 4438SOL    HW116940   1.758   4.406   2.207 -0.3332 -2.0514 -2.4918
 4438SOL    HW216941   1.826   4.271   2.196  1.7928 -1.4100  1.5828
 4438SOL     MW16942   1.802   4.339   2.244 -0.2583 -0.8054 -0.2382
 4439SOL     OW16943   1.219   5.156   1.131  0.1848 -0.2448 -0.1820
 4439SOL    HW116944   1.158   5.202   1.073  0.5568  0.5045  0.0138
 4439SOL    HW216945   1.291   5.217   1.144  0.3613 -0.6130  0.6434
 4439SOL     MW16946   1.220   5.170   1.126  0.2550 -0.1965 -0.0511
 4440SOL     OW16947   3.388   4.325   4.262  0.0789  0.8716 -0.8786
 4440SOL    HW116948   3.365   4.418   4.269  0.0750  0.9685 -2.1908
 4440SOL    HW216949   3.305   4.279   4.272  0.0914  1.0009 -0.1514
 4440SOL     MW16950   3.375   4.331   4.264  0.0801  0.9007 -0.9542
 4441SOL     OW16951   1.096   5.164   2.351 -0.2227 -0.3936 -0.4914
 4441SOL    HW116952   1.124   5.173   2.260 -0.2234  2.2047 -0.2842
 4441SOL    HW216953   1.003   5.144   2.346 -0.3173  0.1747 -1.0588
 4441SOL     MW16954   1.088   5.163   2.339 -0.2350  0.0119 -0.5379
 4442SOL     OW16955   0.288   2.059   0.695  0.1297  0.0489 -0.5745
 4442SOL    HW116956   0.358   2.117   0.665  1.4113 -0.1267  1.9764
 4442SOL    HW216957   0.297   2.057   0.790 -0.0052 -4.1750 -0.5452
 4442SOL     MW16958   0.298   2.066   0.703  0.2765 -0.5143 -0.2441
 4443SOL     OW16959   5.065   3.742   1.353  0.6228 -0.0809 -0.0157
 4443SOL    HW116960   5.074   3.667   1.295  1.6183 -1.3790  1.7672
 4443SOL    HW216961   5.154   3.763   1.380  0.2958  1.3429  0.0188
 4443SOL     MW16962   5.077   3.735   1.349  0.7086 -0.0646  0.2171
 4444SOL     OW16963   3.921   1.990   5.031  0.1737 -0.2580 -0.4769
 4444SOL    HW116964   3.839   2.022   4.992 -0.1024 -0.4573 -0.0614
 4444SOL    HW216965   3.907   1.895   5.040  0.1327 -0.1706  0.3624
 4444SOL     MW16966   3.909   1.982   5.027  0.1330 -0.2723 -0.3161
 4445SOL     OW16967   5.782   3.416   4.002 -0.1888  0.2384 -0.2850
 4445SOL    HW116968   5.762   3.374   4.086 -0.4409  1.9870  0.5485
 4445SOL    HW216969   5.747   3.356   3.936 -1.7847 -0.1994  0.9310
 4445SOL     MW16970   5.775   3.403   4.004 -0.4253  0.4060 -0.0224
 4446SOL     OW16971   3.383   1.161   0.818 -0.2963 -0.4143 -0.0320
 4446SOL    HW116972   3.397   1.172   0.912  3.8255  0.4057 -0.6532
 4446SOL    HW216973   3.315   1.225   0.796 -2.0107 -1.2936  2.4874
 4446SOL     MW16974   3.376   1.171   0.827  0.0119 -0.4220  0.2110
 4447SOL     OW16975   5.794   0.503   3.046  0.6559 -0.4352 -0.5533
 4447SOL    HW116976   5.844   0.584   3.054  1.2464 -0.8676  0.3066
 4447SOL    HW216977   5.762   0.502   2.956  0.6344  0.7554 -0.5580
 4447SOL     MW16978   5.796   0.513   3.036  0.7281 -0.3382 -0.4437
 4448SOL     OW16979   0.596   2.793   0.616  0.2837  0.5865 -0.6334
 4448SOL    HW116980   0.609   2.811   0.709 -2.1068  0.6935 -0.2688
 4448SOL    HW216981   0.589   2.880   0.576 -1.0386  0.5622 -0.5023
 4448SOL     MW16982   0.597   2.807   0.623 -0.1916  0.5970 -0.5700
 4449SOL     OW16983   0.600   3.922   0.912  0.2335  0.4987  0.0658
 4449SOL    HW116984   0.690   3.939   0.885  0.2658  1.8756  0.9641
 4449SOL    HW216985   0.556   3.892   0.833  1.4921 -0.2480 -0.3661
 4449SOL     MW16986   0.606   3.921   0.898  0.3988  0.5794  0.1255
 4450SOL     OW16987   1.148   0.605   5.220  0.3291 -0.4092  0.2067
 4450SOL    HW116988   1.122   0.592   5.311  3.5721 -3.2940  0.8097
 4450SOL    HW216989   1.211   0.677   5.222 -0.5793  0.4104  0.0101
 4450SOL     MW16990   1.153   0.612   5.232  0.6280 -0.6736  0.2589
 4451SOL     OW16991   3.051   0.457   5.175  0.3072  0.7913  0.8551
 4451SOL    HW116992   3.039   0.365   5.198 -0.1542  0.7785  0.5672
 4451SOL    HW216993   3.145   0.472   5.185  0.7619 -0.3338 -1.3997
 4451SOL     MW16994   3.061   0.447   5.179  0.3064  0.6457  0.5298
 4452SOL     OW16995   2.071   3.948   0.227  0.2859  0.2923  0.1512
 4452SOL    HW116996   2.156   3.905   0.233  0.3975  0.6214  0.8720
 4452SOL    HW216997   2.013   3.880   0.192  0.7800 -0.0128 -0.0866
 4452SOL     MW16998   2.074   3.934   0.223  0.3636  0.2954  0.2130
 4453SOL     OW16999   5.087   3.729   5.160 -0.3928 -0.0076 -0.0541
 4453SOL    HW117000   5.120   3.813   5.192  1.5410 -0.3593 -1.0413
 4453SOL    HW217001   5.164   3.671   5.162 -0.8030 -0.7275 -2.9334
 4453SOL     MW17002   5.101   3.732   5.165 -0.1979 -0.1447 -0.5493
 4454SOL     OW17003   2.698   0.917   4.952  0.2330  0.0239 -0.2373
 4454SOL    HW117004   2.665   0.836   4.912 -0.7385  1.7486 -2.9861
 4454SOL    HW217005   2.789   0.897   4.974 -0.3487 -2.2236  0.3018
 4454SOL     MW17006   2.706   0.904   4.950  0.0341 -0.0431 -0.5198
 4455SOL     OW17007   2.407   3.373   3.922 -0.3351  0.3546  0.0286
 4455SOL    HW117008   2.349   3.298   3.930 -0.2711  0.2203 -0.7527
 4455SOL    HW217009   2.443   3.367   3.834 -2.1552  2.6223 -0.9158
 4455SOL     MW17010   2.404   3.363   3.912 -0.5600  0.6275 -0.1924
 4456SOL     OW17011   3.469   4.675   0.585  0.6938  0.0795 -0.0675
 4456SOL    HW117012   3.443   4.761   0.552 -0.7055 -0.9559 -1.7184
 4456SOL    HW217013   3.528   4.695   0.658  1.3701  2.4365 -1.1845
 4456SOL     MW17014   3.473   4.689   0.590  0.6015  0.2489 -0.4218
 4457SOL     OW17015   3.810   5.294   0.927  0.0737  0.2270  0.1557
 4457SOL    HW117016   3.827   5.242   1.005  1.2370 -0.9955 -0.8826
 4457SOL    HW217017   3.727   5.260   0.893 -0.3936  0.7091  0.7976
 4457SOL     MW17018   3.801   5.283   0.932  0.1628  0.1326  0.1049
 4458SOL     OW17019   5.857   1.629   0.429 -0.1865  0.1575  0.4042
 4458SOL    HW117020   5.836   1.609   0.337 -0.6695  0.5128  0.4340
 4458SOL    HW217021   5.932   1.689   0.424 -0.0363 -0.0405  0.2536
 4458SOL     MW17022   5.864   1.634   0.416 -0.2294  0.1777  0.3887
 4459SOL     OW17023   2.649   4.528   2.561 -0.4343 -0.1379 -0.5466
 4459SOL    HW117024   2.637   4.534   2.466 -1.2205 -0.1564 -0.4575
 4459SOL    HW217025   2.573   4.575   2.597  2.0343  3.5589  0.0437
 4459SOL     MW17026   2.637   4.535   2.554 -0.2191  0.3328 -0.4594
 4460SOL     OW17027   1.481   1.598   3.037 -0.0647 -0.5099 -0.1910
 4460SOL    HW117028   1.458   1.514   2.997 -0.3712 -0.3892 -0.2712
 4460SOL    HW217029   1.463   1.587   3.130 -0.1728 -0.5102 -0.2121
 4460SOL     MW17030   1.476   1.586   3.044 -0.1178 -0.4946 -0.2038
 4461SOL     OW17031   0.808   2.483   1.324  0.2065  0.2283 -0.1845
 4461SOL    HW117032   0.904   2.488   1.320  0.4506 -1.0476  2.5905
 4461SOL    HW217033   0.780   2.575   1.323  1.5707  0.6723  0.5178
 4461SOL     MW17034   0.817   2.496   1.323  0.4123  0.1218  0.2606
 4462SOL     OW17035   3.560   5.210   4.486  0.6266 -0.2008 -0.1968
 4462SOL    HW117036   3.513   5.169   4.559  0.4201  0.4287  0.0340
 4462SOL    HW217037   3.491   5.242   4.428  0.7736 -4.5429 -2.9227
 4462SOL     MW17038   3.545   5.209   4.488  0.6189 -0.6757 -0.5164
 4463SOL     OW17039   3.842   5.646   3.301 -0.4430 -0.7212 -0.2803
 4463SOL    HW117040   3.855   5.740   3.291 -1.3239 -0.3062  2.1119
 4463SOL    HW217041   3.901   5.621   3.373  0.8654 -2.2693 -1.8523
 4463SOL     MW17042   3.851   5.655   3.309 -0.3881 -0.8659 -0.1755
 4464SOL     OW17043   4.755   4.177   4.029  0.5679 -0.4507  0.1541
 4464SOL    HW117044   4.747   4.270   4.010  0.9255 -0.5945 -0.7355
 4464SOL    HW217045   4.847   4.157   4.012  0.4943 -0.9654  0.3431
 4464SOL     MW17046   4.766   4.186   4.024  0.6042 -0.5355  0.0644
 4465SOL     OW17047   2.067   3.426   5.225  0.2746  0.7219  0.8134
 4465SOL    HW117048   2.023   3.401   5.144  0.0484  0.0462  1.1506
 4465SOL    HW217049   2.084   3.520   5.214  0.7773  0.5081 -0.2686
 4465SOL     MW17050   2.064   3.435   5.213  0.3099  0.6082  0.7181
 4466SOL     OW17051   3.290   1.368   5.182  0.0539 -0.5011 -0.6493
 4466SOL    HW117052   3.206   1.330   5.211 -0.3633  0.1154 -1.0393
 4466SOL    HW217053   3.293   1.349   5.088 -0.6588  1.3536 -1.0630
 4466SOL     MW17054   3.279   1.361   5.173 -0.0908 -0.1848 -0.7520
 4467SOL     OW17055   1.884   5.922   2.576  0.3433  0.0365  0.5994
 4467SOL    HW117056   1.851   5.891   2.660  1.7482  0.0644  1.1859
 4467SOL    HW217057   1.868   6.016   2.577 -2.3839 -0.3706 -0.4668
 4467SOL     MW17058   1.878   5.930   2.587  0.1739 -0.0119  0.5379
 4468SOL     OW17059   2.833   4.015   4.726  0.0317 -0.2835  0.1679
 4468SOL    HW117060   2.842   3.943   4.790  1.7450 -1.8453 -1.7318
 4468SOL    HW217061   2.768   3.983   4.664  0.6876 -0.1410 -0.5948
 4468SOL     MW17062   2.826   4.001   4.726  0.3350 -0.4654 -0.1726
 4469SOL     OW17063   3.985   3.726   4.116 -0.2615  0.1740 -0.7925
 4469SOL    HW117064   4.032   3.734   4.033 -0.1584  1.6253 -0.6078
 4469SOL    HW217065   3.917   3.793   4.111 -1.3344 -0.8578 -0.4018
 4469SOL     MW17066   3.982   3.735   4.105 -0.3858  0.2277 -0.7191
 4470SOL     OW17067   1.668   2.258   0.214 -0.0052  0.3833 -0.2520
 4470SOL    HW117068   1.681   2.163   0.215  0.9984  0.5019 -1.5316
 4470SOL    HW217069   1.575   2.269   0.234 -0.1182 -0.8633 -0.0205
 4470SOL     MW17070   1.658   2.247   0.217  0.1087  0.2391 -0.3862
 4471SOL     OW17071   5.025   1.869   3.659  0.3108 -0.1264  0.2676
 4471SOL    HW117072   5.064   1.930   3.721  1.9123  0.0813 -0.9023
 4471SOL    HW217073   5.099   1.816   3.628 -0.6083 -0.8499 -0.7554
 4471SOL     MW17074   5.040   1.870   3.663  0.3982 -0.1924 -0.0131
 4472SOL     OW17075   2.990   0.321   2.494 -0.0583  0.2010  0.4443
 4472SOL    HW117076   2.996   0.245   2.552  0.0776 -0.9228 -1.0038
 4472SOL    HW217077   3.070   0.317   2.441 -0.6095  0.6655 -0.4432
 4472SOL     MW17078   3.001   0.310   2.495 -0.1113  0.1166  0.1450
 4473SOL     OW17079   0.130   2.532   5.597 -0.1293  0.2030  0.0255
 4473SOL    HW117080   0.210   2.532   5.544  1.0763  0.7392  1.7852
 4473SOL    HW217081   0.069   2.587   5.549  1.4216  1.8149 -0.1328
 4473SOL     MW17082   0.133   2.539   5.584  0.2235  0.4780  0.2303
 4474SOL     OW17083   4.625   3.031   0.950 -0.0121  0.0041 -0.9093
 4474SOL    HW117084   4.664   2.983   0.876 -0.1438  0.3987 -1.2359
 4474SOL    HW217085   4.674   3.113   0.953 -0.8642  0.5379 -1.3676
 4474SOL     MW17086   4.637   3.035   0.941 -0.1383  0.1228 -1.0097
 4475SOL     OW17087   1.361   3.553   1.734  0.4921 -0.3304 -0.5475
 4475SOL    HW117088   1.445   3.590   1.709  0.2162 -0.9486 -2.4512
 4475SOL    HW217089   1.315   3.624   1.779  1.8387  0.1329  0.1238
 4475SOL     MW17090   1.366   3.567   1.737  0.6292 -0.3502 -0.7052
 4476SOL     OW17091   2.803   1.381   0.787  0.2048 -0.2038  0.2936
 4476SOL    HW117092   2.859   1.345   0.719  1.2475  0.6726  0.6684
 4476SOL    HW217093   2.862   1.435   0.841 -1.0491  0.9644  0.5287
 4476SOL     MW17094   2.818   1.384   0.785  0.1781  0.0579  0.3716
 4477SOL     OW17095   5.445   1.307   0.864 -0.7535 -0.9679 -0.1263
 4477SOL    HW117096   5.466   1.311   0.770  3.3452 -0.1519  0.7266
 4477SOL    HW217097   5.443   1.398   0.892 -1.0828 -1.2464  0.7571
 4477SOL     MW17098   5.447   1.319   0.855 -0.2708 -0.8990  0.0960
 4478SOL     OW17099   5.426   5.894   0.739 -0.4208 -0.4876 -0.0640
 4478SOL    HW117100   5.489   5.846   0.685  0.4139 -2.0946  2.2837
 4478SOL    HW217101   5.340   5.866   0.706  0.0393 -0.0073 -1.7663
 4478SOL     MW17102   5.423   5.884   0.728 -0.2551 -0.6323  0.0186
 4479SOL     OW17103   2.793   3.771   0.948  0.9985 -0.1635 -0.4776
 4479SOL    HW117104   2.725   3.784   1.015  1.2788  0.5590 -0.3309
 4479SOL    HW217105   2.825   3.860   0.929 -0.7176 -0.0561 -3.2902
 4479SOL     MW17106   2.788   3.784   0.954  0.8144 -0.0572 -0.8188
 4480SOL     OW17107   0.646   3.204   3.015  0.2940  0.8561 -0.8257
 4480SOL    HW117108   0.712   3.135   3.009  0.6583  1.1359 -0.1576
 4480SOL    HW217109   0.653   3.235   3.106  1.4698  3.0755 -1.6171
 4480SOL     MW17110   0.656   3.199   3.026  0.4912  1.1759 -0.8414
 4481SOL     OW17111   2.949   4.824   3.127  0.2615 -0.0529  0.5190
 4481SOL    HW117112   3.022   4.844   3.186  0.9861  0.7749 -0.6312
 4481SOL    HW217113   2.941   4.902   3.072 -0.6623 -0.6559 -0.2167
 4481SOL     MW17114   2.958   4.836   3.128  0.2358 -0.0238  0.2778
 4482SOL     OW17115   3.812   4.051   3.794 -0.4452 -0.2636  0.8035
 4482SOL    HW117116   3.823   4.146   3.787 -1.1713 -0.0199  2.6179
 4482SOL    HW217117   3.836   4.017   3.707  1.4445  1.4118  0.6473
 4482SOL     MW17118   3.816   4.059   3.782 -0.2961 -0.0176  1.0157
 4483SOL     OW17119   0.509   5.636   2.873  0.0689  0.1481 -0.2512
 4483SOL    HW117120   0.594   5.602   2.902  1.0231  0.7794 -2.2260
 4483SOL    HW217121   0.460   5.559   2.848  0.1168 -0.2056  0.6994
 4483SOL     MW17122   0.514   5.622   2.874  0.1971  0.1836 -0.3822
 4484SOL     OW17123   3.998   2.445   5.271 -0.3062  0.2720  0.0090
 4484SOL    HW117124   4.085   2.413   5.295 -0.3496  0.6785  0.7514
 4484SOL    HW217125   3.944   2.425   5.348 -0.2355  2.4718  0.6689
 4484SOL     MW17126   4.002   2.439   5.284 -0.3028  0.6058  0.1888
 4485SOL     OW17127   2.760   1.540   4.104  0.3843  0.4065  0.1670
 4485SOL    HW117128   2.785   1.623   4.062 -0.3139  0.6114  0.1497
 4485SOL    HW217129   2.774   1.556   4.197 -1.6355  1.2391  0.3666
 4485SOL     MW17130   2.765   1.553   4.110  0.0362  0.5393  0.1903
 4486SOL     OW17131   2.626   4.174   4.526 -0.4519 -0.1188 -0.2605
 4486SOL    HW117132   2.717   4.198   4.543 -0.9127 -0.1333  2.4451
 4486SOL    HW217133   2.576   4.226   4.588 -2.0271 -2.5318  0.5560
 4486SOL     MW17134   2.632   4.184   4.536 -0.7124 -0.4296  0.1898
 4487SOL     OW17135   3.485   2.060   1.658 -0.0043  0.3901  0.4643
 4487SOL    HW117136   3.426   2.108   1.716  0.2243  1.4480 -0.1856
 4487SOL    HW217137   3.568   2.056   1.706 -0.5328 -0.9419  1.2999
 4487SOL     MW17138   3.488   2.065   1.672 -0.0427  0.3550  0.4880
 4488SOL     OW17139   5.057   2.736   3.093  0.4465 -0.1223  0.4685
 4488SOL    HW117140   5.069   2.647   3.061 -0.9140 -1.0904  2.5792
 4488SOL    HW217141   5.087   2.791   3.021  2.3586 -2.2782 -0.4455
 4488SOL     MW17142   5.063   2.732   3.080  0.5169 -0.5224  0.6216
 4489SOL     OW17143   0.793   1.025   5.635  0.1659  0.1284 -0.1750
 4489SOL    HW117144   0.809   0.938   5.673  1.1090  0.7097  0.7788
 4489SOL    HW217145   0.846   1.026   5.555 -3.5372 -1.9331 -2.8317
 4489SOL     MW17146   0.802   1.014   5.629 -0.1874 -0.0612 -0.3929
 4490SOL     OW17147   0.255   1.286   4.483  0.0722 -0.4089  0.9776
 4490SOL    HW117148   0.209   1.341   4.420  0.9224  0.4161  1.0728
 4490SOL    HW217149   0.258   1.199   4.442  1.7054  0.3926 -0.6709
 4490SOL     MW17150   0.249   1.282   4.470  0.3901 -0.2006  0.7782
 4491SOL     OW17151   3.503   2.424   1.877 -0.5030 -0.1988  0.1049
 4491SOL    HW117152   3.491   2.452   1.968 -2.3070 -1.1697  0.1900
 4491SOL    HW217153   3.595   2.396   1.873 -0.1770  0.6247  1.4056
 4491SOL     MW17154   3.513   2.424   1.889 -0.6924 -0.2177  0.2825
 4492SOL     OW17155   4.386   3.687   3.909 -0.4421  0.5254  0.1109
 4492SOL    HW117156   4.438   3.748   3.960  1.9019 -1.6904  0.4741
 4492SOL    HW217157   4.399   3.603   3.952  1.1289 -1.2927 -3.6901
 4492SOL     MW17158   4.395   3.684   3.921  0.0591  0.0088 -0.3293
 4493SOL     OW17159   4.484   2.791   3.748 -0.0794  0.8551 -0.2352
 4493SOL    HW117160   4.416   2.723   3.749 -0.2949  1.0792  0.4869
 4493SOL    HW217161   4.439   2.869   3.718  0.4033  0.4411 -2.0824
 4493SOL     MW17162   4.470   2.792   3.744 -0.0448  0.8307 -0.3793
 4494SOL     OW17163   2.062   5.135   5.802  0.5021  0.0132  0.0162
 4494SOL    HW117164   2.142   5.137   5.854  1.4930  0.4797 -1.4835
 4494SOL    HW217165   2.086   5.180   5.721 -0.6201 -1.8311 -1.3636
 4494SOL     MW17166   2.075   5.141   5.798  0.4852 -0.1636 -0.3529
 4495SOL     OW17167   1.528   1.278   2.219 -0.3464 -0.1297  0.6900
 4495SOL    HW117168   1.486   1.244   2.140  0.0632  1.8925 -0.4557
 4495SOL    HW217169   1.550   1.201   2.271  1.7222 -1.7130 -2.3656
 4495SOL     MW17170   1.526   1.264   2.216 -0.0292 -0.0737  0.1521
 4496SOL     OW17171   5.066   0.617   5.546 -0.1603  0.8195  0.0162
 4496SOL    HW117172   5.004   0.684   5.576 -2.0140 -1.0237  0.4087
 4496SOL    HW217173   5.017   0.535   5.552  1.7421 -0.4523 -1.4278
 4496SOL     MW17174   5.051   0.615   5.550 -0.1540  0.4208 -0.1183
 4497SOL     OW17175   0.761   3.230   0.604  0.1949  0.0712  0.1835
 4497SOL    HW117176   0.695   3.168   0.574  0.7793  0.5469 -2.1505
 4497SOL    HW217177   0.734   3.314   0.568  2.0349  0.2768 -0.7941
 4497SOL     MW17178   0.749   3.233   0.596  0.5052  0.1583 -0.2403
 4498SOL     OW17179   0.626   3.684   4.789 -0.0217 -0.2549 -0.0555
 4498SOL    HW117180   0.595   3.688   4.880 -2.5069  0.4236 -0.8870
 4498SOL    HW217181   0.578   3.610   4.751  3.3627 -2.5809 -0.0278
 4498SOL     MW17182   0.616   3.675   4.796  0.0934 -0.4659 -0.1588
 4499SOL     OW17183   5.412   5.883   2.495 -0.0131  0.1990 -0.4064
 4499SOL    HW117184   5.464   5.836   2.430  0.4519  2.2501 -1.5271
 4499SOL    HW217185   5.471   5.892   2.570 -0.1409 -1.0736 -0.1334
 4499SOL     MW17186   5.426   5.878   2.496  0.0305  0.2985 -0.5147
 4500SOL     OW17187   3.526   2.816   5.216 -0.1135  0.1675 -0.4930
 4500SOL    HW117188   3.507   2.751   5.283 -0.3643  0.0636 -0.6636
 4500SOL    HW217189   3.502   2.900   5.256  1.5160  0.3063  0.2329
 4500SOL     MW17190   3.520   2.819   5.229  0.0632  0.1721 -0.4215
 4501SOL     OW17191   5.636   0.186   3.819  0.7854  0.0036  0.6776
 4501SOL    HW117192   5.680   0.101   3.819 -1.5845 -1.3862  4.7724
 4501SOL    HW217193   5.603   0.196   3.730  3.8658 -1.8176 -0.7466
 4501SOL     MW17194   5.637   0.176   3.808  0.8764 -0.4074  1.0195
 4502SOL     OW17195   4.523   5.192   4.483  0.0821 -0.1361  0.8326
 4502SOL    HW117196   4.441   5.170   4.526 -0.1978  0.0613  0.3972
 4502SOL    HW217197   4.500   5.259   4.419  0.3964 -0.7912  0.0171
 4502SOL     MW17198   4.510   5.198   4.480  0.0863 -0.1945  0.6723
 4503SOL     OW17199   0.416   3.352   3.710 -0.5317 -0.4459  0.4715
 4503SOL    HW117200   0.477   3.415   3.672  0.0400 -0.6995  0.9570
 4503SOL    HW217201   0.449   3.337   3.798 -0.6658 -1.4175  0.3650
 4503SOL     MW17202   0.428   3.358   3.716 -0.4757 -0.6027  0.5202
 4504SOL     OW17203   3.610   1.268   0.315  0.5364  0.3786  0.1442
 4504SOL    HW117204   3.643   1.268   0.405  1.7396 -4.6457 -0.1293
 4504SOL    HW217205   3.681   1.306   0.263  2.6843 -2.7705  0.6198
 4504SOL     MW17206   3.624   1.273   0.320  0.9656 -0.6677  0.1701
 4505SOL     OW17207   0.765   0.935   0.743  0.0537 -0.4355  0.2024
 4505SOL    HW117208   0.860   0.924   0.744  0.1950  0.6039 -0.3979
 4505SOL    HW217209   0.740   0.916   0.652 -0.2657 -0.3749  0.2783
 4505SOL     MW17210   0.774   0.931   0.731  0.0310 -0.2947  0.1353
 4506SOL     OW17211   1.270   0.372   0.155  0.1019 -0.2933  0.0777
 4506SOL    HW117212   1.236   0.458   0.127  1.9474  0.4164 -0.0235
 4506SOL    HW217213   1.355   0.391   0.193  0.5008 -2.0956  0.1170
 4506SOL     MW17214   1.276   0.385   0.156  0.3892 -0.4332  0.0698
 4507SOL     OW17215   0.133   4.229   2.418 -0.7924  0.0228  0.2704
 4507SOL    HW117216   0.155   4.175   2.494 -0.3645 -2.3131 -1.4797
 4507SOL    HW217217   0.203   4.295   2.414  0.3531 -1.1507  0.6548
 4507SOL     MW17218   0.145   4.231   2.427 -0.5910 -0.4263  0.0954
 4508SOL     OW17219   2.413   0.807   3.892  0.4092  0.0439  0.2284
 4508SOL    HW117220   2.476   0.765   3.951 -0.4697  0.0958  1.2189
 4508SOL    HW217221   2.337   0.827   3.948 -0.3035  0.3932 -0.8469
 4508SOL     MW17222   2.411   0.804   3.907  0.2053  0.0953  0.2177
 4509SOL     OW17223   0.702   4.012   1.629  0.7044 -0.3165  0.1710
 4509SOL    HW117224   0.724   3.999   1.721  0.3921  1.5939  0.5454
 4509SOL    HW217225   0.636   3.945   1.610 -0.1189  0.0519  1.6738
 4509SOL     MW17226   0.697   4.002   1.638  0.5590 -0.0248  0.4113
 4510SOL     OW17227   0.460   4.442   4.456 -0.1484  0.1872 -0.2760
 4510SOL    HW117228   0.542   4.403   4.486  0.3996  1.0481 -0.6454
 4510SOL    HW217229   0.394   4.411   4.518  0.5924  0.1336  0.4861
 4510SOL     MW17230   0.462   4.433   4.467  0.0166  0.2909 -0.2251
 4511SOL     OW17231   1.133   5.104   5.259  0.4588 -0.4678 -0.0226
 4511SOL    HW117232   1.125   5.037   5.327  0.6036 -0.0025  0.4623
 4511SOL    HW217233   1.201   5.070   5.200  0.3838 -0.8424  0.1060
 4511SOL     MW17234   1.141   5.091   5.260  0.4678 -0.4559  0.0558
 4512SOL     OW17235   0.411   2.896   4.606 -0.3064 -0.3047  0.2287
 4512SOL    HW117236   0.462   2.818   4.585  0.5415 -0.2279  1.9111
 4512SOL    HW217237   0.330   2.885   4.557  1.0489 -0.7345 -1.9824
 4512SOL     MW17238   0.407   2.885   4.597 -0.0243 -0.3500  0.1616
 4513SOL     OW17239   4.680   4.146   0.436 -0.0457 -0.0019 -0.4959
 4513SOL    HW117240   4.754   4.160   0.495 -0.6511 -0.6878  0.4207
 4513SOL    HW217241   4.719   4.156   0.348  1.0537  0.0196 -0.0222
 4513SOL     MW17242   4.695   4.149   0.432  0.0176 -0.0873 -0.3179
 4514SOL     OW17243   3.827   5.098   4.667 -0.0733 -0.4514 -0.1608
 4514SOL    HW117244   3.912   5.070   4.700  0.2630  1.7725  0.9563
 4514SOL    HW217245   3.847   5.154   4.592 -0.5468 -0.0120  0.0347
 4514SOL     MW17246   3.841   5.102   4.661 -0.0908 -0.1106  0.0067
 4515SOL     OW17247   1.734   2.030   0.062 -0.5497 -0.4814  0.1657
 4515SOL    HW117248   1.804   1.975   0.028  0.0016  0.5031 -0.3384
 4515SOL    HW217249   1.756   2.118   0.031 -2.0517 -0.1645 -0.0635
 4515SOL     MW17250   1.746   2.034   0.054 -0.6714 -0.3150  0.0718
 4516SOL     OW17251   0.152   0.858   2.610 -0.7485  0.4102 -0.1105
 4516SOL    HW117252   0.207   0.929   2.644 -0.1371  0.0220 -0.2692
 4516SOL    HW217253   0.195   0.778   2.642 -0.9705  0.0914 -0.6070
 4516SOL     MW17254   0.165   0.857   2.619 -0.6987  0.3197 -0.1943
 4517SOL     OW17255   0.072   1.340   1.474 -0.3955 -0.1859 -0.1420
 4517SOL    HW117256  -0.001   1.300   1.520 -1.1302  2.4480  1.0383
 4517SOL    HW217257   0.129   1.266   1.450 -2.4517 -2.0480  0.6280
 4517SOL     MW17258   0.070   1.325   1.477 -0.7528 -0.0873  0.1076
 4518SOL     OW17259   4.792   5.174   0.530  0.3342  0.0352 -0.7832
 4518SOL    HW117260   4.732   5.248   0.545 -1.1407 -1.2472 -0.2747
 4518SOL    HW217261   4.809   5.139   0.617  0.0825 -0.9698 -1.1399
 4518SOL     MW17262   4.786   5.179   0.543  0.1135 -0.2570 -0.7638
 4519SOL     OW17263   4.915   5.548   1.241  0.3168  0.3264 -0.0049
 4519SOL    HW117264   4.873   5.527   1.157  2.2436 -1.6454 -0.5004
 4519SOL    HW217265   4.909   5.467   1.292  1.4972  0.7151  0.7759
 4519SOL     MW17266   4.909   5.535   1.237  0.7148  0.1240  0.0317
 4520SOL     OW17267   3.009   4.018   1.288  0.5399  0.5454 -0.1445
 4520SOL    HW117268   2.995   4.113   1.282  1.7232  0.7696  0.5951
 4520SOL    HW217269   3.082   4.008   1.349  0.0339 -0.8808  0.2446
 4520SOL     MW17270   3.017   4.029   1.295  0.6266  0.3915  0.0000
 4521SOL     OW17271   5.499   0.147   5.466  0.8617 -0.4567 -0.6207
 4521SOL    HW117272   5.447   0.215   5.423 -0.4891 -0.8952  0.2694
 4521SOL    HW217273   5.546   0.193   5.536  1.0079 -0.2017 -0.8883
 4521SOL     MW17274   5.498   0.161   5.469  0.7071 -0.4802 -0.5407
 4522SOL     OW17275   2.361   4.880   3.741  0.1513 -0.2464 -0.1952
 4522SOL    HW117276   2.359   4.812   3.673  0.5500 -0.3110 -0.1415
 4522SOL    HW217277   2.307   4.844   3.812  2.6260 -1.7314  0.9867
 4522SOL     MW17278   2.354   4.867   3.741  0.5188 -0.4439 -0.0370
 4523SOL     OW17279   5.167   0.390   0.107  0.0188 -0.1981 -0.1062
 4523SOL    HW117280   5.215   0.437   0.176  0.3102 -3.0314  1.7274
 4523SOL    HW217281   5.082   0.433   0.103 -0.0117  0.0279  2.1050
 4523SOL     MW17282   5.162   0.401   0.115  0.0525 -0.5319  0.4116
 4524SOL     OW17283   5.195   4.028   3.398 -0.5828  0.4807  0.2105
 4524SOL    HW117284   5.282   3.991   3.402 -0.0520  1.3907 -2.0727
 4524SOL    HW217285   5.172   4.026   3.305 -2.3615  1.6535  0.5938
 4524SOL     MW17286   5.203   4.023   3.387 -0.7429  0.7472 -0.0327
 4525SOL     OW17287   1.575   1.274   5.096 -0.1422  0.6093  0.4274
 4525SOL    HW117288   1.580   1.324   5.015 -1.8401  0.6074  0.3060
 4525SOL    HW217289   1.549   1.186   5.069  0.6274  0.2369  0.8602
 4525SOL     MW17290   1.573   1.269   5.083 -0.2609  0.5614  0.4673
 4526SOL     OW17291   5.463   1.397   2.906 -0.1407 -0.2575 -0.2337
 4526SOL    HW117292   5.478   1.444   2.988  1.5955 -2.9200  1.0405
 4526SOL    HW217293   5.373   1.366   2.912  0.1758 -0.9649  0.9490
 4526SOL     MW17294   5.453   1.399   2.917  0.1221 -0.6889  0.0811
 4527SOL     OW17295   5.388   3.825   1.800  0.6107 -0.6181 -0.2259
 4527SOL    HW117296   5.302   3.839   1.840 -0.4486 -1.4784 -2.1357
 4527SOL    HW217297   5.424   3.749   1.847 -0.1827 -0.9853 -0.1987
 4527SOL     MW17298   5.382   3.817   1.812  0.3734 -0.7753 -0.4668
 4528SOL     OW17299   2.937   5.665   4.734 -0.0996  0.0574 -0.0008
 4528SOL    HW117300   2.876   5.738   4.740  0.6437  0.6497  0.3757
 4528SOL    HW217301   2.953   5.655   4.640 -2.2232 -1.3200 -0.2535
 4528SOL     MW17302   2.931   5.673   4.722 -0.2763 -0.0434  0.0148
 4529SOL     OW17303   5.648   2.940   0.264 -0.1280 -0.2004  0.4160
 4529SOL    HW117304   5.725   2.945   0.320  0.5546 -1.1969 -0.4215
 4529SOL    HW217305   5.597   3.018   0.286  0.1220 -0.5922  2.4249
 4529SOL     MW17306   5.651   2.950   0.274 -0.0086 -0.3784  0.5659
 4530SOL     OW17307   3.713   0.470   2.989  0.0948 -0.3141  0.0362
 4530SOL    HW117308   3.715   0.505   3.078 -0.3048 -1.0149  0.3284
 4530SOL    HW217309   3.620   0.463   2.968  0.1817 -0.6548 -0.2348
 4530SOL     MW17310   3.702   0.474   2.998  0.0548 -0.4475  0.0389
 4531SOL     OW17311   4.959   0.020   1.177  0.3035 -0.4301  0.1410
 4531SOL    HW117312   4.872   0.058   1.164 -0.4201 -2.7431 -2.3169
 4531SOL    HW217313   4.942  -0.070   1.204  1.8353 -1.6331 -2.6052
 4531SOL     MW17314   4.946   0.013   1.179  0.4067 -0.8802 -0.5251
 4532SOL     OW17315   4.378   4.471   2.572 -0.1988  0.0554 -0.3801
 4532SOL    HW117316   4.328   4.535   2.523 -0.4582 -0.5946 -0.9805
 4532SOL    HW217317   4.372   4.499   2.664 -1.1341  0.3256 -0.5282
 4532SOL     MW17318   4.371   4.483   2.578 -0.3519  0.0072 -0.4759
 4533SOL     OW17319   4.219   1.317   1.508  0.7309  0.4759  0.0427
 4533SOL    HW117320   4.185   1.380   1.572 -0.3096  0.3962 -0.4143
 4533SOL    HW217321   4.252   1.371   1.436 -0.2644  0.5096 -0.3996
 4533SOL     MW17322   4.219   1.332   1.507  0.4702  0.4700 -0.0724
 4534SOL     OW17323   2.174   2.038   3.576  0.6206 -0.6357  0.7216
 4534SOL    HW117324   2.183   1.995   3.661  2.4031 -0.7906  0.4885
 4534SOL    HW217325   2.143   2.126   3.597 -0.6018 -1.2057  1.3908
 4534SOL     MW17326   2.171   2.043   3.590  0.6924 -0.7286  0.7777
 4535SOL     OW17327   4.333   4.156   2.140  0.6207 -0.4752 -0.3049
 4535SOL    HW117328   4.371   4.195   2.219 -0.9580 -0.1627  0.3038
 4535SOL    HW217329   4.391   4.184   2.069  0.7842  1.0941  0.4353
 4535SOL     MW17330   4.345   4.165   2.141  0.4396 -0.2346 -0.1323
 4536SOL     OW17331   4.566   2.650   1.622  0.4480 -0.0404 -0.2093
 4536SOL    HW117332   4.495   2.590   1.598  0.1388  0.3395 -0.2454
 4536SOL    HW217333   4.561   2.721   1.558  1.2554 -0.3224 -0.5861
 4536SOL     MW17334   4.556   2.651   1.611  0.5116 -0.0281 -0.2619
 4537SOL     OW17335   2.716   5.793   2.717  0.0620  0.3221 -0.3520
 4537SOL    HW117336   2.638   5.738   2.713 -1.0099  1.8858 -2.3448
 4537SOL    HW217337   2.747   5.796   2.626  1.3399  1.2548  0.1014
 4537SOL     MW17338   2.710   5.787   2.705  0.0885  0.6418 -0.5491
 4538SOL     OW17339   0.297   3.957   0.932 -0.2378 -0.6322 -0.1526
 4538SOL    HW117340   0.386   3.983   0.906 -0.1177 -1.9491 -1.0946
 4538SOL    HW217341   0.243   3.983   0.858 -0.7570  0.8102  0.7174
 4538SOL     MW17342   0.302   3.964   0.919 -0.2888 -0.6163 -0.1618
 4539SOL     OW17343   2.776   0.099   5.348 -0.3513 -0.0814 -0.4814
 4539SOL    HW117344   2.868   0.123   5.341  0.5718 -2.7841  1.6377
 4539SOL    HW217345   2.749   0.133   5.434 -0.6236 -1.4391 -0.0124
 4539SOL     MW17346   2.784   0.107   5.358 -0.2682 -0.6012 -0.1502
 4540SOL     OW17347   2.443   5.550   3.577 -0.3870 -0.7702 -0.6604
 4540SOL    HW117348   2.405   5.509   3.654 -0.0545 -0.8859 -0.5583
 4540SOL    HW217349   2.374   5.545   3.511 -1.4747  1.3052  0.2812
 4540SOL     MW17350   2.429   5.544   3.578 -0.4838 -0.5193 -0.5267
 4541SOL     OW17351   1.205   4.423   1.074 -0.3670  0.2457  0.1248
 4541SOL    HW117352   1.266   4.353   1.099  0.4446  0.8606 -0.0817
 4541SOL    HW217353   1.135   4.379   1.027 -0.4646 -0.5689  1.0246
 4541SOL     MW17354   1.204   4.409   1.071 -0.2755  0.2203  0.2135
 4542SOL     OW17355   1.568   5.433   1.421 -0.2988  0.1154 -0.1086
 4542SOL    HW117356   1.528   5.392   1.497 -0.3847 -1.4205 -0.9758
 4542SOL    HW217357   1.528   5.390   1.346  2.4905 -1.0119 -1.0065
 4542SOL     MW17358   1.558   5.423   1.421  0.0473 -0.2255 -0.3346
 4543SOL     OW17359   3.091   4.309   2.678 -0.2826 -0.4197 -0.3382
 4543SOL    HW117360   3.128   4.252   2.611  1.4117 -0.8104  0.8934
 4543SOL    HW217361   3.163   4.366   2.705  0.0360 -2.4039  3.3875
 4543SOL     MW17362   3.105   4.309   2.673 -0.0248 -0.7238  0.2968
 4544SOL     OW17363   4.063   4.994   4.770 -0.5065  0.3045  0.4385
 4544SOL    HW117364   4.011   4.941   4.831 -2.0288  1.0577 -0.1923
 4544SOL    HW217365   4.136   5.025   4.823  0.2983 -2.2393  0.8754
 4544SOL     MW17366   4.066   4.991   4.785 -0.5984  0.0753  0.4134
 4545SOL     OW17367   5.770   4.020   1.720  0.6245 -0.2321  0.4160
 4545SOL    HW117368   5.812   4.080   1.782 -0.3859  0.5491  0.3520
 4545SOL    HW217369   5.810   3.935   1.738  1.6780  0.3533  0.8772
 4545SOL     MW17370   5.780   4.017   1.730  0.6299 -0.0567  0.4668
 4546SOL     OW17371   3.064   3.842   1.820 -0.3758  0.2647  0.1389
 4546SOL    HW117372   3.155   3.868   1.802 -0.4428  0.9588  0.7638
 4546SOL    HW217373   3.016   3.868   1.741  0.2501 -1.6526 -0.8942
 4546SOL     MW17374   3.070   3.849   1.807 -0.3045  0.1078  0.0865
 4547SOL     OW17375   5.511   0.606   5.561 -0.1579 -0.7542 -0.3542
 4547SOL    HW117376   5.457   0.538   5.602  1.1467 -2.8690 -2.0066
 4547SOL    HW217377   5.471   0.620   5.475 -0.0027  0.0767 -0.2968
 4547SOL     MW17378   5.499   0.599   5.555  0.0296 -0.9186 -0.5579
 4548SOL     OW17379   1.765   1.256   0.538  0.0083 -0.1888  0.4323
 4548SOL    HW117380   1.712   1.301   0.472  0.5412  1.1359  0.8832
 4548SOL    HW217381   1.752   1.163   0.521 -0.3569  0.1434 -1.1366
 4548SOL     MW17382   1.757   1.250   0.527  0.0298  0.0232  0.2891
 4549SOL     OW17383   4.862   4.805   0.212  0.1254  0.0095 -0.0778
 4549SOL    HW117384   4.819   4.883   0.247 -1.6474 -1.5860  1.4232
 4549SOL    HW217385   4.954   4.814   0.237 -0.2358  1.1844  0.8420
 4549SOL     MW17386   4.868   4.816   0.220 -0.1478 -0.0443  0.2321
 4550SOL     OW17387   3.879   0.894   1.333  0.2229  0.0744  0.1058
 4550SOL    HW117388   3.837   0.966   1.379  0.9220 -1.3721  3.1401
 4550SOL    HW217389   3.972   0.916   1.334  0.1014  0.8496 -2.1955
 4550SOL     MW17390   3.886   0.906   1.339  0.2968 -0.0116  0.1996
 4551SOL     OW17391   5.005   3.888   4.824 -0.1271  1.4399 -0.2118
 4551SOL    HW117392   5.084   3.898   4.877 -0.6829 -1.3024  1.2032
 4551SOL    HW217393   5.037   3.871   4.736  0.9010 -1.2726  0.6620
 4551SOL     MW17394   5.019   3.887   4.820 -0.0668  0.7417  0.0815
 4552SOL     OW17395   5.106   1.840   2.292  0.1250  0.5980  0.0852
 4552SOL    HW117396   5.025   1.800   2.321 -0.1193  0.6822 -0.4665
 4552SOL    HW217397   5.111   1.923   2.339 -0.0952  0.5806  0.1358
 4552SOL     MW17398   5.097   1.845   2.302  0.0658  0.6065  0.0210
 4553SOL     OW17399   2.418   5.924   0.443 -0.5809 -0.1793  0.1285
 4553SOL    HW117400   2.439   5.833   0.466  0.0183 -0.1451 -0.2701
 4553SOL    HW217401   2.331   5.938   0.481 -0.1548 -0.5217  1.2626
 4553SOL     MW17402   2.409   5.914   0.451 -0.4499 -0.2189  0.2227
 4554SOL     OW17403   4.656   3.486   3.788 -0.6297  0.0909 -0.1085
 4554SOL    HW117404   4.661   3.432   3.867  2.3747  1.2906  0.5827
 4554SOL    HW217405   4.691   3.571   3.815 -2.4067  1.4558 -1.9778
 4554SOL     MW17406   4.661   3.490   3.801 -0.4725  0.4191 -0.2592
 4555SOL     OW17407   4.318   5.851   1.611  0.2176 -0.3018 -0.1995
 4555SOL    HW117408   4.243   5.813   1.566  0.3265  0.5677 -1.1326
 4555SOL    HW217409   4.311   5.945   1.594  1.8362 -0.2718 -0.7836
 4555SOL     MW17410   4.307   5.859   1.603  0.4382 -0.1869 -0.3936
 4556SOL     OW17411   1.506   2.747   3.689  0.1376 -0.0914  0.0928
 4556SOL    HW117412   1.596   2.725   3.662  0.0971 -2.1581  1.5449
 4556SOL    HW217413   1.451   2.708   3.622  0.2090 -1.7605  0.9735
 4556SOL     MW17414   1.511   2.740   3.677  0.1415 -0.5696  0.3915
 4557SOL     OW17415   2.117   0.901   5.427 -0.2621 -0.3080  0.2070
 4557SOL    HW117416   2.071   0.911   5.510  2.0867 -1.3260  1.7004
 4557SOL    HW217417   2.130   0.806   5.418  1.3595 -0.0641 -0.2374
 4557SOL     MW17418   2.113   0.890   5.437  0.2460 -0.4071  0.3414
 4558SOL     OW17419   2.946   4.902   0.181 -0.0669 -0.0255  0.4871
 4558SOL    HW117420   2.984   4.982   0.220  0.7989 -0.7282  1.1209
 4558SOL    HW217421   3.008   4.833   0.204  0.3276 -0.5271 -1.9256
 4558SOL     MW17422   2.959   4.904   0.189  0.0944 -0.1793  0.2594
 4559SOL     OW17423   0.674   1.995   2.724 -0.3868 -0.3262  0.2979
 4559SOL    HW117424   0.724   2.038   2.794 -1.9699 -0.3466  1.4470
 4559SOL    HW217425   0.727   1.918   2.702  0.5631  0.1477  0.8494
 4559SOL     MW17426   0.687   1.991   2.730 -0.4678 -0.2683  0.5155
 4560SOL     OW17427   1.057   2.863   0.864  0.2678  1.0615  0.4518
 4560SOL    HW117428   1.036   2.827   0.950  3.0734 -0.6935  0.4710
 4560SOL    HW217429   1.152   2.863   0.861  0.2217  2.3132 -2.1626
 4560SOL     MW17430   1.066   2.858   0.875  0.6210  0.9971  0.1195
 4561SOL     OW17431   1.173   4.988   1.517  0.2118  0.3046 -0.5601
 4561SOL    HW117432   1.118   4.957   1.445  1.0718 -0.3619 -0.9324
 4561SOL    HW217433   1.125   5.064   1.552 -0.7792 -0.0634 -1.0853
 4561SOL     MW17434   1.160   4.994   1.513  0.1950  0.1721 -0.6750
 4562SOL     OW17435   2.619   4.166   2.403 -0.3164  0.4302 -0.4731
 4562SOL    HW117436   2.696   4.169   2.461  0.2958  1.6660 -1.3202
 4562SOL    HW217437   2.544   4.177   2.462  0.0602 -1.6647  0.4798
 4562SOL     MW17438   2.619   4.168   2.418 -0.1895  0.3204 -0.4592
 4563SOL     OW17439   5.148   3.067   4.694 -0.1645 -0.3468 -0.0669
 4563SOL    HW117440   5.055   3.050   4.710 -1.1008  3.3437 -0.9550
 4563SOL    HW217441   5.168   3.142   4.750  2.0908 -0.6526 -0.4235
 4563SOL     MW17442   5.139   3.075   4.703  0.0038  0.0863 -0.2260
 4564SOL     OW17443   5.337   0.003   4.751  0.1643  0.2544  0.2157
 4564SOL    HW117444   5.380  -0.058   4.690 -1.3080  0.5865 -1.1754
 4564SOL    HW217445   5.403   0.072   4.765  1.5857 -1.2732  1.2672
 4564SOL     MW17446   5.351   0.004   4.745  0.1578  0.1014  0.1721
 4565SOL     OW17447   2.287   5.622   2.518  0.5302 -0.1421 -0.0626
 4565SOL    HW117448   2.208   5.669   2.491 -0.5753 -0.9333  1.6670
 4565SOL    HW217449   2.322   5.673   2.591  0.6433 -0.6849  0.2723
 4565SOL     MW17450   2.281   5.634   2.524  0.4032 -0.3128  0.2017
 4566SOL     OW17451   4.198   4.817   0.439 -0.0126  0.9387 -0.4142
 4566SOL    HW117452   4.249   4.746   0.477 -0.8757 -0.9438 -2.6416
 4566SOL    HW217453   4.161   4.863   0.514  0.0832 -1.3360  1.0726
 4566SOL     MW17454   4.199   4.814   0.453 -0.1111  0.4067 -0.5091
 4567SOL     OW17455   5.814   2.601   1.469 -0.1173 -0.0175 -0.0414
 4567SOL    HW117456   5.730   2.633   1.435  0.4470  0.8467 -0.6303
 4567SOL    HW217457   5.790   2.551   1.547 -1.3846 -1.5039 -1.3349
 4567SOL     MW17458   5.800   2.599   1.475 -0.2074 -0.0973 -0.2823
 4568SOL     OW17459   5.969   2.467   5.334 -0.4624  0.0632  0.1623
 4568SOL    HW117460   6.017   2.385   5.335 -0.3387  0.1134 -0.9741
 4568SOL    HW217461   5.886   2.447   5.290 -0.3339  0.5958 -0.3301
 4568SOL     MW17462   5.964   2.454   5.329 -0.4301  0.1378 -0.0467
 4569SOL     OW17463   5.390   4.349   1.473  0.0475  0.1909  0.0246
 4569SOL    HW117464   5.362   4.439   1.455 -1.2734 -0.3403 -0.6019
 4569SOL    HW217465   5.463   4.335   1.413  1.2056  1.3191  1.1235
 4569SOL     MW17466   5.396   4.359   1.463  0.0267  0.2670  0.0850
 4570SOL     OW17467   2.829   2.753   3.900 -0.4214  0.4180 -0.1230
 4570SOL    HW117468   2.898   2.711   3.849  0.2019  0.5376  0.6151
 4570SOL    HW217469   2.747   2.719   3.863  0.0286  0.2354 -0.9642
 4570SOL     MW17470   2.827   2.743   3.888 -0.2840  0.4098 -0.1364
 4571SOL     OW17471   4.013   2.660   5.019  0.4877 -0.1388 -0.3552
 4571SOL    HW117472   4.078   2.646   4.951  0.3221  1.5002 -0.8841
 4571SOL    HW217473   3.930   2.635   4.978  0.2548  1.7627 -1.1371
 4571SOL     MW17474   4.010   2.655   5.005  0.4363  0.3142 -0.5231
 4572SOL     OW17475   0.284   4.858   1.395 -0.0599  0.3255  0.0571
 4572SOL    HW117476   0.205   4.868   1.448 -0.6909 -2.2033 -0.3463
 4572SOL    HW217477   0.356   4.871   1.456 -0.7755  0.8952  0.7996
 4572SOL     MW17478   0.283   4.861   1.409 -0.2324  0.0744  0.1006
 4573SOL     OW17479   0.979   3.017   0.436  0.2257 -0.6827 -0.5538
 4573SOL    HW117480   1.071   2.994   0.419  0.1102 -1.5290 -0.1052
 4573SOL    HW217481   0.963   3.095   0.383  1.7923  0.6965  0.9629
 4573SOL     MW17482   0.989   3.024   0.427  0.4115 -0.6144 -0.3022
 4574SOL     OW17483   1.158   1.816   4.505  0.0122  0.0849  0.2647
 4574SOL    HW117484   1.112   1.886   4.553  0.8323 -0.0904  1.3377
 4574SOL    HW217485   1.211   1.863   4.441 -1.1976  0.3208 -0.5744
 4574SOL     MW17486   1.159   1.831   4.503 -0.0377  0.0927  0.2947
 4575SOL     OW17487   1.022   5.990   5.820  0.7777  0.0617  0.9962
 4575SOL    HW117488   1.064   6.067   5.780 -1.7074  2.1494  2.2441
 4575SOL    HW217489   1.095   5.941   5.859  2.5139  1.2923 -0.5740
 4575SOL     MW17490   1.037   5.994   5.820  0.6819  0.4864  0.9551
 4576SOL     OW17491   4.083   1.664   4.330 -0.3789  0.4185 -0.2735
 4576SOL    HW117492   4.125   1.633   4.250  1.7731 -0.4784  1.1730
 4576SOL    HW217493   4.014   1.600   4.347  0.7175 -0.7527 -0.1223
 4576SOL     MW17494   4.080   1.652   4.322  0.0372  0.1537 -0.0687
 4577SOL     OW17495   0.869   5.154   0.034 -0.5683 -0.9306 -0.0022
 4577SOL    HW117496   0.792   5.134   0.087  0.2193 -0.8478  1.1887
 4577SOL    HW217497   0.859   5.246   0.009 -0.8017 -0.8896  0.2450
 4577SOL     MW17498   0.858   5.163   0.038 -0.4973 -0.9146  0.1819
 4578SOL     OW17499   2.907   1.539   2.141  0.2428 -0.5832 -0.0247
 4578SOL    HW117500   2.853   1.529   2.219  0.5672  0.3256  0.3253
 4578SOL    HW217501   2.978   1.597   2.168  0.2597 -0.1105 -1.0484
 4578SOL     MW17502   2.909   1.545   2.154  0.2863 -0.4065 -0.1111
 4579SOL     OW17503   3.672   1.897   2.688  0.8737 -0.5571  0.3472
 4579SOL    HW117504   3.688   1.872   2.596  1.2606 -0.4172  0.3782
 4579SOL    HW217505   3.596   1.844   2.713 -0.5748  0.9533 -0.7042
 4579SOL     MW17506   3.664   1.887   2.679  0.7379 -0.3458  0.2165
 4580SOL     OW17507   1.002   4.428   0.661 -0.3434 -0.0574  0.2434
 4580SOL    HW117508   0.962   4.502   0.615 -0.8002 -0.0607  0.6258
 4580SOL    HW217509   1.006   4.358   0.595  0.7758  0.5319 -0.3274
 4580SOL     MW17510   0.997   4.429   0.647 -0.2587  0.0176  0.2193
 4581SOL     OW17511   4.814   4.849   1.375  0.2233  0.5061  0.7014
 4581SOL    HW117512   4.848   4.846   1.286  1.7725  0.1663  1.2899
 4581SOL    HW217513   4.757   4.772   1.382 -0.4067  0.8959 -0.1945
 4581SOL     MW17514   4.811   4.838   1.365  0.3409  0.5121  0.6621
 4582SOL     OW17515   1.315   5.408   0.855 -0.1641  0.3418  0.8244
 4582SOL    HW117516   1.347   5.326   0.818  1.8811  1.3556  0.2647
 4582SOL    HW217517   1.221   5.394   0.866  0.1121 -1.9819  0.5321
 4582SOL     MW17518   1.307   5.396   0.852  0.1330  0.1740  0.7154
 4583SOL     OW17519   3.286   0.986   5.608 -0.3876 -0.6392 -0.8255
 4583SOL    HW117520   3.239   0.928   5.549  1.5420 -2.2062 -0.8747
 4583SOL    HW217521   3.351   1.029   5.553 -1.4182  1.1658 -0.6673
 4583SOL     MW17522   3.288   0.984   5.594 -0.2728 -0.6087 -0.8116
 4584SOL     OW17523   5.105   0.537   1.640  0.6746 -0.0891 -0.7051
 4584SOL    HW117524   5.091   0.627   1.611 -0.0131 -0.8010 -2.6377
 4584SOL    HW217525   5.025   0.513   1.686  0.1326 -0.3242 -1.7735
 4584SOL     MW17526   5.093   0.545   1.642  0.5169 -0.2103 -1.0893
 4585SOL     OW17527   5.180   2.443   5.628 -0.5181  0.3102  0.0979
 4585SOL    HW117528   5.150   2.534   5.632  1.1129  0.8256  1.4537
 4585SOL    HW217529   5.233   2.432   5.707 -0.5766 -1.7880 -0.1181
 4585SOL     MW17530   5.183   2.453   5.639 -0.3166  0.1073  0.2441
 4586SOL     OW17531   2.151   4.362   0.038 -0.2355 -0.0333  0.5245
 4586SOL    HW117532   2.097   4.302  -0.013 -0.1221  0.2603  0.0592
 4586SOL    HW217533   2.089   4.408   0.094 -0.5798  0.9418 -0.6454
 4586SOL     MW17534   2.136   4.360   0.039 -0.2649  0.1292  0.3152
 4587SOL     OW17535   4.491   0.988   0.819  0.4260  0.6737 -0.0144
 4587SOL    HW117536   4.506   1.075   0.854  1.1085  0.5193  0.0844
 4587SOL    HW217537   4.461   0.936   0.894  2.7442  0.1156  0.5721
 4587SOL     MW17538   4.489   0.992   0.833  0.8101  0.5825  0.0734
 4588SOL     OW17539   4.099   1.843   0.010 -0.0581 -0.3817 -0.0800
 4588SOL    HW117540   4.047   1.762   0.002 -1.1318  0.2402  0.4526
 4588SOL    HW217541   4.099   1.862   0.104  3.4491 -1.8389  0.2736
 4588SOL     MW17542   4.092   1.835   0.021  0.2532 -0.4888  0.0334
 4589SOL     OW17543   5.770   5.871   1.784 -0.5196  0.4198  0.0054
 4589SOL    HW117544   5.834   5.802   1.797  0.0673  0.5856 -1.8044
 4589SOL    HW217545   5.701   5.853   1.847  0.0452 -1.3133  0.1406
 4589SOL     MW17546   5.769   5.860   1.793 -0.3724  0.2198 -0.2089
 4590SOL     OW17547   5.148   0.098   3.696 -0.3495  0.0732  0.3367
 4590SOL    HW117548   5.064   0.084   3.652  0.4661  0.3789 -1.3660
 4590SOL    HW217549   5.178   0.011   3.720 -0.9880 -0.0619  0.6605
 4590SOL     MW17550   5.141   0.085   3.693 -0.3271  0.0950  0.1602
 4591SOL     OW17551   1.768   2.488   3.415 -0.1080 -0.3342  0.2421
 4591SOL    HW117552   1.701   2.433   3.374  0.9967 -0.2304 -1.7546
 4591SOL    HW217553   1.848   2.436   3.409  0.6871  0.9493 -0.5422
 4591SOL     MW17554   1.770   2.474   3.409  0.1352 -0.1564 -0.1140
 4592SOL     OW17555   5.276   4.102   4.233  0.1696  0.2229 -0.3033
 4592SOL    HW117556   5.204   4.039   4.239  0.2865  0.1349  0.1166
 4592SOL    HW217557   5.330   4.071   4.160 -0.7960  0.8693 -1.3212
 4592SOL     MW17558   5.273   4.090   4.224  0.0610  0.2947 -0.3796
 4593SOL     OW17559   5.239   3.005   5.308 -0.1466  0.4482  0.1277
 4593SOL    HW117560   5.289   3.082   5.279 -1.1976  1.5786  1.2813
 4593SOL    HW217561   5.252   3.003   5.403 -2.1148  0.6205  0.4057
 4593SOL     MW17562   5.247   3.014   5.317 -0.5331  0.6151  0.3109
 4594SOL     OW17563   2.174   1.148   4.306  0.5164  0.3772  0.2908
 4594SOL    HW117564   2.081   1.155   4.329  0.1269  0.8612 -1.3885
 4594SOL    HW217565   2.208   1.237   4.316  1.0914 -0.0192  2.0462
 4594SOL     MW17566   2.167   1.160   4.310  0.5400  0.3884  0.3004
 4595SOL     OW17567   3.171   3.051   3.317 -0.2269 -0.1663  0.8375
 4595SOL    HW117568   3.189   3.130   3.370  1.1957 -0.6457  1.0863
 4595SOL    HW217569   3.238   3.052   3.250 -0.7701 -0.6938  0.2854
 4595SOL     MW17570   3.182   3.061   3.315 -0.1144 -0.2952  0.7987
 4596SOL     OW17571   4.422   2.672   0.411 -0.1412  0.0873 -0.1661
 4596SOL    HW117572   4.408   2.644   0.502 -3.4699  0.6732 -0.4536
 4596SOL    HW217573   4.463   2.596   0.369 -1.3189 -1.2813  1.1069
 4596SOL     MW17574   4.425   2.658   0.418 -0.7181 -0.0129 -0.0400
 4597SOL     OW17575   0.604   5.560   0.468 -0.0131 -0.0603  0.1314
 4597SOL    HW117576   0.691   5.522   0.454 -0.2041 -0.1957 -0.7126
 4597SOL    HW217577   0.619   5.654   0.472  0.0533 -0.0173 -0.9952
 4597SOL     MW17578   0.617   5.567   0.467 -0.0291 -0.0715 -0.1209
 4598SOL     OW17579   0.766   1.257   4.040 -0.0174 -0.3385  0.1037
 4598SOL    HW117580   0.778   1.345   4.075  2.0083 -0.3133 -0.6008
 4598SOL    HW217581   0.843   1.209   4.070 -0.6408 -1.6126 -0.3082
 4598SOL     MW17582   0.777   1.262   4.048  0.1620 -0.4983 -0.0396
 4599SOL     OW17583   3.693   3.590   0.880 -0.0796 -0.2036  0.3533
 4599SOL    HW117584   3.607   3.628   0.861  1.0035  1.5072 -1.3158
 4599SOL    HW217585   3.753   3.635   0.820  2.0847 -0.9317  1.8993
 4599SOL     MW17586   3.689   3.601   0.870  0.3359 -0.0780  0.3375
 4600SOL     OW17587   4.974   1.426   0.227 -0.2347  0.1393  0.0273
 4600SOL    HW117588   4.884   1.408   0.199 -0.3029  0.0515  0.3048
 4600SOL    HW217589   4.966   1.499   0.289 -0.0772  0.3780 -0.2326
 4600SOL     MW17590   4.961   1.433   0.231 -0.2241  0.1585  0.0296
 4601SOL     OW17591   5.106   0.073   2.070 -0.2630 -0.1736  0.0318
 4601SOL    HW117592   5.014   0.054   2.086 -0.5831  1.5232  0.2558
 4601SOL    HW217593   5.152   0.031   2.143 -0.5677 -3.3762 -1.5138
 4601SOL     MW17594   5.100   0.065   2.081 -0.3428 -0.3663 -0.1373
 4602SOL     OW17595   4.606   0.546   0.996 -0.3351 -0.0245  0.4147
 4602SOL    HW117596   4.591   0.634   1.030 -0.7198  0.1995 -0.3255
 4602SOL    HW217597   4.679   0.513   1.048  0.9662  1.3883 -0.4586
 4602SOL     MW17598   4.614   0.553   1.007 -0.2174  0.1850  0.2080
 4603SOL     OW17599   1.302   1.752   5.805 -0.1802 -0.0523 -0.3724
 4603SOL    HW117600   1.395   1.739   5.822 -0.1648  0.7053  0.0947
 4603SOL    HW217601   1.268   1.794   5.884 -0.7297  0.5501 -0.9277
 4603SOL     MW17602   1.309   1.756   5.817 -0.2487  0.1216 -0.3837
 4604SOL     OW17603   1.655   3.936   3.239 -0.3221  0.0202  0.0308
 4604SOL    HW117604   1.617   3.851   3.259 -1.7116  0.4544 -0.7036
 4604SOL    HW217605   1.749   3.923   3.250 -0.5191 -1.5987 -0.0207
 4604SOL     MW17606   1.662   3.924   3.243 -0.5252 -0.1314 -0.0696
 4605SOL     OW17607   1.583   2.633   4.136  0.1888  0.3058  0.3784
 4605SOL    HW117608   1.618   2.690   4.204  2.6034  0.2316 -0.7595
 4605SOL    HW217609   1.538   2.692   4.076 -0.6586  0.5374  1.2256
 4605SOL     MW17610   1.581   2.648   4.137  0.3896  0.3259  0.3414
 4606SOL     OW17611   2.645   2.698   1.268 -0.1975 -0.5693 -0.5698
 4606SOL    HW117612   2.681   2.610   1.255 -1.3527 -1.2287  0.6630
 4606SOL    HW217613   2.667   2.744   1.187 -0.1658 -2.1871 -1.5046
 4606SOL     MW17614   2.653   2.693   1.256 -0.3414 -0.8609 -0.5316
 4607SOL     OW17615   4.551   4.744   2.436 -0.4209  0.3034 -0.0732
 4607SOL    HW117616   4.492   4.769   2.507  1.7939  1.2394  1.4971
 4607SOL    HW217617   4.583   4.657   2.461 -1.4612 -0.3990 -1.1490
 4607SOL     MW17618   4.547   4.736   2.449 -0.2699  0.3333 -0.0100
 4608SOL     OW17619   3.095   4.826   1.086  0.7761 -0.5201  0.1073
 4608SOL    HW117620   3.143   4.842   1.167  0.1738 -0.0900  0.3899
 4608SOL    HW217621   3.033   4.757   1.107  1.5876 -1.4089 -0.3891
 4608SOL     MW17622   3.093   4.819   1.099  0.8028 -0.5794  0.0800
 4609SOL     OW17623   0.368   5.016   5.610  0.0511  0.4257 -0.7770
 4609SOL    HW117624   0.456   5.043   5.585  0.9947 -0.6320  1.3064
 4609SOL    HW217625   0.351   5.061   5.692 -0.4678 -1.0912 -0.0382
 4609SOL     MW17626   0.377   5.025   5.617  0.1055  0.0963 -0.4153
 4610SOL     OW17627   1.564   4.006   5.107  0.0113  0.6243  0.0595
 4610SOL    HW117628   1.474   4.031   5.083 -0.4437 -1.4728 -0.4994
 4610SOL    HW217629   1.577   4.047   5.193 -1.1338  1.7205 -0.2630
 4610SOL     MW17630   1.554   4.015   5.115 -0.1936  0.4964 -0.0539
 4611SOL     OW17631   3.306   1.595   5.344 -0.7211  0.0077  0.3820
 4611SOL    HW117632   3.352   1.552   5.415 -0.2737 -0.3684 -0.1350
 4611SOL    HW217633   3.286   1.525   5.282 -1.0167  0.3516  0.0867
 4611SOL     MW17634   3.310   1.581   5.345 -0.7017  0.0035  0.2780
 4612SOL     OW17635   0.210   3.615   3.715 -0.2871  0.0882 -0.0252
 4612SOL    HW117636   0.173   3.650   3.796 -1.5630  1.0419 -1.0261
 4612SOL    HW217637   0.182   3.675   3.646 -0.0954 -1.2929 -1.3425
 4612SOL     MW17638   0.202   3.627   3.717 -0.4259  0.0334 -0.3223
 4613SOL     OW17639   4.974   1.559   5.347 -0.0366 -0.5307 -0.1533
 4613SOL    HW117640   4.919   1.631   5.318  0.4771  0.5250  1.3902
 4613SOL    HW217641   4.920   1.481   5.337 -1.7607  0.4624  1.1540
 4613SOL     MW17642   4.960   1.558   5.342 -0.1907 -0.2685  0.2117
 4614SOL     OW17643   2.959   2.434   0.659 -0.2344 -0.3068 -0.3703
 4614SOL    HW117644   2.996   2.516   0.628  1.1262 -0.9308 -0.4050
 4614SOL    HW217645   2.898   2.460   0.728 -1.4832  0.8961 -1.8935
 4614SOL     MW17646   2.956   2.448   0.664 -0.2198 -0.2329 -0.5698
 4615SOL     OW17647   4.585   3.236   2.995  0.1792  0.6424  0.0446
 4615SOL    HW117648   4.511   3.177   2.984  0.9461 -0.6556  1.7005
 4615SOL    HW217649   4.659   3.179   3.016  1.1389  2.1043  0.7359
 4615SOL     MW17650   4.585   3.221   2.996  0.4001  0.6633  0.3450
 4616SOL     OW17651   3.139   2.008   1.461 -0.4165 -0.0148 -0.1563
 4616SOL    HW117652   3.093   1.953   1.524  0.8673 -0.7319  0.1768
 4616SOL    HW217653   3.154   2.090   1.507 -2.1333  0.5362 -0.5745
 4616SOL     MW17654   3.135   2.011   1.475 -0.4721 -0.0360 -0.1673
 4617SOL     OW17655   4.256   3.750   3.000 -0.0968 -0.7999  0.3533
 4617SOL    HW117656   4.166   3.748   2.966  0.6500 -0.8892 -1.6779
 4617SOL    HW217657   4.311   3.761   2.922  1.5834  0.7820  1.7219
 4617SOL     MW17658   4.251   3.751   2.986  0.2141 -0.6089  0.2685
 4618SOL     OW17659   2.174   0.561   4.629 -0.1352  0.1898 -0.3710
 4618SOL    HW117660   2.130   0.483   4.596 -0.8361  0.2442  0.4291
 4618SOL    HW217661   2.148   0.631   4.570  0.7511 -0.2301 -1.2877
 4618SOL     MW17662   2.165   0.560   4.617 -0.1113  0.1429 -0.3862
 4619SOL     OW17663   1.204   2.565   0.431  0.0164 -0.1107  0.1166
 4619SOL    HW117664   1.146   2.497   0.465 -1.1874  0.5177 -0.6612
 4619SOL    HW217665   1.212   2.546   0.338  1.1889 -0.2793  0.2440
 4619SOL     MW17666   1.198   2.554   0.423  0.0124 -0.0517  0.0333
 4620SOL     OW17667   4.953   2.485   3.374  0.0071  0.0408  0.2738
 4620SOL    HW117668   4.899   2.409   3.354 -0.3025  0.3675 -0.1248
 4620SOL    HW217669   5.043   2.456   3.355 -0.3494  0.6706 -2.6667
 4620SOL     MW17670   4.958   2.471   3.369 -0.0782  0.1631 -0.1538
 4621SOL     OW17671   5.778   2.927   0.793  0.2345  0.3274  0.7262
 4621SOL    HW117672   5.720   2.865   0.750  1.6624 -0.3067 -0.3181
 4621SOL    HW217673   5.852   2.874   0.822  1.3394  1.4885  0.0662
 4621SOL     MW17674   5.780   2.912   0.791  0.5584  0.3948  0.5081
 4622SOL     OW17675   2.078   1.998   0.764 -0.1418 -0.1242 -0.1783
 4622SOL    HW117676   2.122   1.927   0.717 -0.0246 -0.5337  0.5512
 4622SOL    HW217677   2.023   1.954   0.828 -1.7282  0.3874 -1.1594
 4622SOL     MW17678   2.077   1.983   0.766 -0.3300 -0.1111 -0.2105
 4623SOL     OW17679   0.380   1.601   1.732 -0.7162  0.0868 -0.4435
 4623SOL    HW117680   0.431   1.574   1.656 -1.0303 -1.4454 -0.1177
 4623SOL    HW217681   0.296   1.558   1.722 -0.4833 -0.7793  1.1755
 4623SOL     MW17682   0.376   1.592   1.721 -0.7266 -0.2202 -0.1947
 4624SOL     OW17683   4.692   2.785   0.471 -0.0647  0.3564  0.6034
 4624SOL    HW117684   4.763   2.797   0.408 -0.0839 -1.0627  0.2857
 4624SOL    HW217685   4.616   2.762   0.416  0.1321 -1.7768  1.1949
 4624SOL     MW17686   4.691   2.783   0.456 -0.0420 -0.0982  0.6385
 4625SOL     OW17687   2.636   0.262   3.826 -0.0617 -0.2057  0.7514
 4625SOL    HW117688   2.654   0.177   3.866 -2.2566  0.1274  2.5373
 4625SOL    HW217689   2.629   0.323   3.900  2.2342  1.7172 -0.5188
 4625SOL     MW17690   2.638   0.259   3.841 -0.0486  0.0831  0.8175
 4626SOL     OW17691   2.952   5.714   0.332  0.2130  0.0182 -0.3682
 4626SOL    HW117692   2.874   5.662   0.311  0.9874 -0.8788 -1.0747
 4626SOL    HW217693   2.939   5.743   0.422 -0.6470 -0.6532 -0.2757
 4626SOL     MW17694   2.940   5.711   0.341  0.2019 -0.1817 -0.4469
 4627SOL     OW17695   1.485   0.438   2.346  0.1174 -0.0356  0.1501
 4627SOL    HW117696   1.577   0.452   2.370 -0.0451  2.5687 -0.5832
 4627SOL    HW217697   1.439   0.512   2.386 -1.8714 -1.9265  1.4985
 4627SOL     MW17698   1.491   0.449   2.354 -0.1581  0.0558  0.2289
 4628SOL     OW17699   2.019   0.843   1.394 -0.0438  0.1181 -0.3437
 4628SOL    HW117700   2.056   0.782   1.457  0.0272  1.2263  0.7118
 4628SOL    HW217701   2.086   0.910   1.382 -0.3183  0.2698 -1.1105
 4628SOL     MW17702   2.032   0.844   1.400 -0.0696  0.2794 -0.3067
 4629SOL     OW17703   5.247   5.836   1.714  0.0954 -0.0275  0.0431
 4629SOL    HW117704   5.235   5.926   1.684  0.4912  1.0663  3.0609
 4629SOL    HW217705   5.244   5.841   1.809  0.6942 -3.1419  0.2879
 4629SOL     MW17706   5.245   5.848   1.722  0.2227 -0.2861  0.4607
 4630SOL     OW17707   3.891   2.128   5.302 -0.5583 -0.3784 -0.3106
 4630SOL    HW117708   3.953   2.131   5.375  0.6710 -2.1126 -1.2318
 4630SOL    HW217709   3.944   2.153   5.226 -1.6412  0.6808 -0.7215
 4630SOL     MW17710   3.906   2.131   5.302 -0.5395 -0.4649 -0.4811
 4631SOL     OW17711   4.106   5.319   3.411  0.7088 -0.1480  0.2110
 4631SOL    HW117712   4.172   5.310   3.480  0.2962 -0.7324  0.5401
 4631SOL    HW217713   4.044   5.247   3.428  0.1528  0.2122 -0.2675
 4631SOL     MW17714   4.106   5.308   3.422  0.5851 -0.1774  0.1917
 4632SOL     OW17715   4.696   2.076   3.611  0.4962 -0.5459 -0.6872
 4632SOL    HW117716   4.651   2.161   3.612 -0.3875 -1.0089 -0.5942
 4632SOL    HW217717   4.775   2.091   3.559  1.0712  0.7001  0.5139
 4632SOL     MW17718   4.700   2.089   3.605  0.4568 -0.4458 -0.5214
 4633SOL     OW17719   5.097   2.532   3.614  0.6326  0.2599 -0.3948
 4633SOL    HW117720   5.127   2.505   3.527  0.6524 -2.3860  0.4027
 4633SOL    HW217721   5.028   2.595   3.597  2.0198  1.3056 -2.3120
 4633SOL     MW17722   5.092   2.537   3.601  0.8130  0.0548 -0.5381
 4634SOL     OW17723   0.749   2.116   0.722 -0.3406  0.3901  0.2228
 4634SOL    HW117724   0.740   2.058   0.798 -0.7686  0.2924  0.0920
 4634SOL    HW217725   0.789   2.061   0.654  0.1007  0.4939  0.3934
 4634SOL     MW17726   0.753   2.101   0.723 -0.3389  0.3910  0.2280
 4635SOL     OW17727   5.384   4.753   5.509  0.3798  0.0277  0.1219
 4635SOL    HW117728   5.467   4.751   5.461  0.8651 -0.0851  0.9491
 4635SOL    HW217729   5.393   4.685   5.576 -0.3751  0.0241  0.2292
 4635SOL     MW17730   5.396   4.744   5.512  0.3448  0.0129  0.2418
 4636SOL     OW17731   5.954   0.938   5.256  0.0891  0.3740 -0.0248
 4636SOL    HW117732   5.951   0.894   5.171 -1.1331 -1.0985  0.7469
 4636SOL    HW217733   5.901   0.883   5.313  1.3905  1.0155  1.8557
 4636SOL     MW17734   5.947   0.925   5.252  0.0992  0.2676  0.3147
 4637SOL     OW17735   3.500   3.397   3.810  0.0504 -0.5525 -0.1640
 4637SOL    HW117736   3.413   3.360   3.795 -0.1096  0.3709 -1.6228
 4637SOL    HW217737   3.541   3.396   3.723  0.7509  0.8727  0.1386
 4637SOL     MW17738   3.494   3.392   3.797  0.1197 -0.2520 -0.3121
 4638SOL     OW17739   1.125   3.992   3.339 -0.2560  0.2836 -0.3003
 4638SOL    HW117740   1.185   3.931   3.382 -0.9960  0.1000  0.4984
 4638SOL    HW217741   1.119   4.067   3.398 -1.3821 -0.0254 -0.0052
 4638SOL     MW17742   1.132   3.994   3.352 -0.4947  0.2205 -0.1602
 4639SOL     OW17743   1.949   5.258   3.745 -0.3916 -0.2755  0.6193
 4639SOL    HW117744   1.986   5.182   3.700 -3.1284 -1.6643  0.6397
 4639SOL    HW217745   1.931   5.321   3.675  1.9698  0.4798  0.6135
 4639SOL     MW17746   1.952   5.256   3.730 -0.4396 -0.3567  0.6211
 4640SOL     OW17747   2.024   5.968   3.028 -0.0561 -0.6680 -0.5886
 4640SOL    HW117748   2.021   5.881   3.068  0.3143  0.1495  1.2670
 4640SOL    HW217749   2.118   5.984   3.013 -0.0062 -0.0251  0.3680
 4640SOL     MW17750   2.036   5.959   3.031 -0.0024 -0.4811 -0.2289
 4641SOL     OW17751   0.606   5.079   2.703 -0.3238 -0.5729  0.4366
 4641SOL    HW117752   0.600   4.989   2.669  0.3338 -0.9637  1.3352
 4641SOL    HW217753   0.699   5.090   2.725 -0.3892  0.3551  0.2543
 4641SOL     MW17754   0.617   5.069   2.701 -0.2480 -0.5045  0.5283
 4642SOL     OW17755   3.563   1.159   1.729  0.5323 -0.0426 -0.3663
 4642SOL    HW117756   3.597   1.093   1.669  2.1935  0.0811  0.3893
 4642SOL    HW217757   3.579   1.242   1.684  1.0199 -0.0013 -0.1256
 4642SOL     MW17758   3.570   1.161   1.715  0.8073 -0.0216 -0.2388
 4643SOL     OW17759   4.737   1.382   0.078  0.2352 -0.3998  0.3574
 4643SOL    HW117760   4.748   1.437   0.000  0.2098 -0.3954  0.3570
 4643SOL    HW217761   4.716   1.295   0.043 -1.9303  0.0965  0.4025
 4643SOL     MW17762   4.736   1.378   0.064 -0.0453 -0.3358  0.3632
 4644SOL     OW17763   4.684   1.017   1.322  0.1349 -0.1260 -0.0639
 4644SOL    HW117764   4.626   0.944   1.343  1.1489 -1.0891 -0.5374
 4644SOL    HW217765   4.733   0.987   1.245  1.6571  0.4218  0.6579
 4644SOL     MW17766   4.683   1.004   1.315  0.4592 -0.1793 -0.0321
 4645SOL     OW17767   5.661   1.154   0.129 -0.1714  0.6262  0.1755
 4645SOL    HW117768   5.629   1.139   0.040 -1.4919  2.6993  0.2832
 4645SOL    HW217769   5.748   1.192   0.118  1.7375 -3.5638 -0.1330
 4645SOL     MW17770   5.668   1.157   0.116 -0.0958  0.3552  0.1498
 4646SOL     OW17771   3.463   0.409   4.478  0.6418  0.1048  0.2323
 4646SOL    HW117772   3.437   0.323   4.511  0.6451  0.2234  0.5452
 4646SOL    HW217773   3.478   0.461   4.556 -2.8707  1.4530  0.1161
 4646SOL     MW17774   3.461   0.405   4.492  0.1926  0.2926  0.2575
 4647SOL     OW17775   2.693   4.255   5.271  0.4310 -0.4628  0.0269
 4647SOL    HW117776   2.683   4.239   5.177  2.8871 -1.2111 -0.1446
 4647SOL    HW217777   2.745   4.181   5.302 -1.1395 -0.6914  2.1679
 4647SOL     MW17778   2.698   4.244   5.263  0.5445 -0.5879  0.2794
 4648SOL     OW17779   1.986   4.537   1.508 -0.2079 -0.2751  0.1091
 4648SOL    HW117780   1.955   4.628   1.505  1.2771  0.2095 -1.1026
 4648SOL    HW217781   1.914   4.487   1.471 -1.3669  0.2970  1.5305
 4648SOL     MW17782   1.973   4.542   1.503 -0.1663 -0.1397  0.1359
 4649SOL     OW17783   5.768   5.873   0.169 -0.7349 -0.0628  0.3649
 4649SOL    HW117784   5.807   5.930   0.235 -1.2172  0.6295  0.0541
 4649SOL    HW217785   5.841   5.820   0.138  0.2252  1.9628 -0.9858
 4649SOL     MW17786   5.782   5.874   0.173 -0.6733  0.2851  0.1523
 4650SOL     OW17787   2.953   0.659   5.007 -0.4841  0.9906 -0.1009
 4650SOL    HW117788   2.995   0.636   4.924 -0.2185  0.9774  0.0352
 4650SOL    HW217789   2.969   0.584   5.064  0.0556  1.3468  0.2229
 4650SOL     MW17790   2.961   0.647   5.003 -0.3812  1.0346 -0.0420
 4651SOL     OW17791   4.866   3.148   0.700  0.1766 -0.1620  0.3773
 4651SOL    HW117792   4.848   3.055   0.686  1.4191 -0.5680  1.3282
 4651SOL    HW217793   4.809   3.173   0.773 -0.2872 -0.1312  0.0040
 4651SOL     MW17794   4.857   3.140   0.707  0.2761 -0.2100  0.4511
 4652SOL     OW17795   2.044   1.580   0.603 -0.7686  0.2332  0.0244
 4652SOL    HW117796   2.135   1.608   0.613 -0.7229  0.0127  0.2221
 4652SOL    HW217797   2.006   1.591   0.690 -0.4750 -1.3137  0.3661
 4652SOL     MW17798   2.051   1.585   0.616 -0.7250  0.0070  0.0934
 4653SOL     OW17799   0.100   3.850   2.975  0.0759  0.7862  0.0156
 4653SOL    HW117800   0.093   3.846   3.070 -0.9172 -0.8978 -0.1031
 4653SOL    HW217801   0.010   3.836   2.944  0.4101  1.1984 -1.1774
 4653SOL     MW17802   0.087   3.848   2.983 -0.0084  0.6232 -0.1521
 4654SOL     OW17803   2.560   2.753   1.542 -0.0779  0.4953 -0.6473
 4654SOL    HW117804   2.617   2.757   1.466  1.1484 -0.5049  0.2017
 4654SOL    HW217805   2.609   2.798   1.611  0.0270 -1.0198  0.2862
 4654SOL     MW17806   2.573   2.759   1.541  0.0927  0.1733 -0.4193
 4655SOL     OW17807   5.555   3.314   1.788 -0.1560  0.2609 -0.4846
 4655SOL    HW117808   5.587   3.300   1.877 -4.8510 -3.2446  0.8856
 4655SOL    HW217809   5.598   3.246   1.736  0.8633  0.8337 -0.3832
 4655SOL     MW17810   5.564   3.303   1.793 -0.6275 -0.1144 -0.2962
 4656SOL     OW17811   3.947   2.067   3.794  0.2393 -0.4455 -0.2975
 4656SOL    HW117812   4.024   2.037   3.841  1.3076  1.8483 -0.5446
 4656SOL    HW217813   3.943   2.011   3.716  1.7768 -0.4300 -0.3908
 4656SOL     MW17814   3.956   2.056   3.790  0.5729 -0.1497 -0.3412
 4657SOL     OW17815   1.042   0.661   0.478  0.4571 -0.0677 -0.5594
 4657SOL    HW117816   1.018   0.702   0.395  1.2739 -0.0914 -0.8088
 4657SOL    HW217817   0.992   0.710   0.544  1.6276  1.5457 -0.8224
 4657SOL     MW17818   1.032   0.673   0.476  0.7116  0.1358 -0.6250
 4658SOL     OW17819   5.254   2.496   5.335 -0.5690  0.0211  0.4367
 4658SOL    HW117820   5.211   2.582   5.339 -1.2350 -0.2067 -1.1917
 4658SOL    HW217821   5.345   2.516   5.315 -0.6699  0.3590  0.3119
 4658SOL     MW17822   5.260   2.510   5.333 -0.6676  0.0350  0.2122
 4659SOL     OW17823   1.304   4.135   2.450  0.4255  0.0936  0.0228
 4659SOL    HW117824   1.333   4.211   2.501  1.1254  1.3218 -2.1347
 4659SOL    HW217825   1.385   4.093   2.422  0.0438 -0.5556 -0.1110
 4659SOL     MW17826   1.318   4.140   2.453  0.4662  0.1678 -0.2704
 4660SOL     OW17827   4.716   0.590   3.835  0.4204  0.0507  0.1735
 4660SOL    HW117828   4.698   0.615   3.926 -0.4473  0.7879 -0.1928
 4660SOL    HW217829   4.738   0.672   3.791 -1.1449 -0.0053 -0.7362
 4660SOL     MW17830   4.717   0.603   3.841  0.1087  0.1378  0.0100
 4661SOL     OW17831   5.987   2.779   0.832  0.7777  0.2482  0.3600
 4661SOL    HW117832   6.027   2.798   0.917 -0.1194 -0.9434  1.0667
 4661SOL    HW217833   5.978   2.684   0.831 -2.2074  0.4851  0.3213
 4661SOL     MW17834   5.991   2.769   0.843  0.2807  0.1259  0.4456
 4662SOL     OW17835   1.192   5.381   0.385 -0.0535  0.0964 -0.0994
 4662SOL    HW117836   1.171   5.416   0.471  0.4917  1.1067 -0.3693
 4662SOL    HW217837   1.245   5.449   0.343  0.7261 -0.8947 -0.7683
 4662SOL     MW17838   1.196   5.394   0.391  0.1160  0.0992 -0.2196
 4663SOL     OW17839   1.050   5.559   0.124  0.5523  0.2811 -0.2131
 4663SOL    HW117840   1.035   5.581   0.216 -0.6327 -0.0670 -0.3273
 4663SOL    HW217841   1.003   5.627   0.075  0.7852  0.1891 -0.5694
 4663SOL     MW17842   1.042   5.571   0.129  0.4305  0.2251 -0.2734
 4664SOL     OW17843   0.286   2.069   1.004  0.5301 -0.5955  0.5774
 4664SOL    HW117844   0.349   2.026   1.063 -0.0906 -1.1888  0.8238
 4664SOL    HW217845   0.201   2.036   1.033  0.1592 -0.3146 -0.1844
 4664SOL     MW17846   0.283   2.059   1.016  0.4032 -0.6356  0.5114
 4665SOL     OW17847   2.536   1.672   4.510 -0.1181  0.3173  0.4243
 4665SOL    HW117848   2.494   1.707   4.431 -0.4297  0.8294  0.8168
 4665SOL    HW217849   2.610   1.730   4.526  0.8973 -0.7136 -0.3935
 4665SOL     MW17850   2.540   1.684   4.502 -0.0281  0.2508  0.3695
 4666SOL     OW17851   3.298   5.300   3.835  0.1417  0.5191 -0.1069
 4666SOL    HW117852   3.344   5.234   3.782  0.2145  1.4710 -1.2417
 4666SOL    HW217853   3.272   5.367   3.772 -1.7860  0.5634  0.7097
 4666SOL     MW17854   3.301   5.300   3.820 -0.0956  0.6461 -0.1476
 4667SOL     OW17855   1.142   2.667   4.527 -0.0757 -0.3207  0.0535
 4667SOL    HW117856   1.066   2.629   4.481  0.9463 -0.6777 -1.3681
 4667SOL    HW217857   1.164   2.745   4.476  2.5443 -2.0139 -1.4843
 4667SOL     MW17858   1.135   2.672   4.515  0.3905 -0.5834 -0.3252
 4668SOL     OW17859   2.492   0.351   5.540 -0.1005 -0.1836 -0.1411
 4668SOL    HW117860   2.583   0.326   5.556  0.0557 -0.4185 -1.3063
 4668SOL    HW217861   2.474   0.320   5.451 -1.1956  0.2119 -0.0691
 4668SOL     MW17862   2.501   0.344   5.530 -0.2210 -0.1630 -0.2809
 4669SOL     OW17863   3.180   1.359   0.840  0.1987  0.0328 -0.4429
 4669SOL    HW117864   3.231   1.426   0.887 -0.5125  0.0047  0.3866
 4669SOL    HW217865   3.179   1.389   0.749  1.2550  0.3018 -0.3758
 4669SOL     MW17866   3.187   1.372   0.835  0.2427  0.0637 -0.3282
 4670SOL     OW17867   2.284   3.650   2.001  0.1010  0.5148 -0.4853
 4670SOL    HW117868   2.244   3.736   2.014 -1.5691 -0.0447 -1.7396
 4670SOL    HW217869   2.230   3.608   1.934  1.5392 -1.1027 -0.6808
 4670SOL     MW17870   2.272   3.656   1.994  0.0713  0.2363 -0.6708
 4671SOL     OW17871   1.292   3.950   3.745  0.3146 -0.7336 -0.3836
 4671SOL    HW117872   1.365   3.975   3.802  0.6066  0.9969 -1.4619
 4671SOL    HW217873   1.254   4.034   3.717 -1.1014 -1.5934 -1.0832
 4671SOL     MW17874   1.296   3.964   3.749  0.1707 -0.6223 -0.6111
 4672SOL     OW17875   5.324   4.984   1.197  0.0174 -0.3242  0.4135
 4672SOL    HW117876   5.374   4.902   1.190 -0.3176 -0.3251 -2.7444
 4672SOL    HW217877   5.391   5.052   1.204  0.2996 -0.8038  2.8616
 4672SOL     MW17878   5.339   4.982   1.197  0.0105 -0.3858  0.3227
 4673SOL     OW17879   5.091   5.397   0.158  0.1916  0.2559  0.3000
 4673SOL    HW117880   5.088   5.307   0.191 -1.2068 -0.1111 -0.7830
 4673SOL    HW217881   5.024   5.443   0.209  1.1452  0.7862  1.0959
 4673SOL     MW17882   5.082   5.392   0.169  0.1349  0.2775  0.2632
 4674SOL     OW17883   1.193   2.659   5.443 -0.3833 -0.0903  0.3935
 4674SOL    HW117884   1.218   2.739   5.397  0.6501 -2.7010 -3.8343
 4674SOL    HW217885   1.276   2.627   5.481 -0.4186 -0.1685  0.4045
 4674SOL     MW17886   1.207   2.665   5.442 -0.2555 -0.4346 -0.1464
 4675SOL     OW17887   4.773   3.044   3.036  0.1288 -0.0974  0.3351
 4675SOL    HW117888   4.717   3.001   2.970 -2.5198  1.0824  1.7316
 4675SOL    HW217889   4.837   3.093   2.985  1.6323 -3.5963 -1.3116
 4675SOL     MW17890   4.774   3.044   3.021 -0.0176 -0.3943  0.3030
 4676SOL     OW17891   2.827   4.563   3.082  0.4150  0.8675  0.2168
 4676SOL    HW117892   2.895   4.506   3.118 -1.7456 -0.0137  3.0131
 4676SOL    HW217893   2.859   4.652   3.097  0.4257  0.4773  2.5799
 4676SOL     MW17894   2.840   4.567   3.088  0.1397  0.7043  0.8771
 4677SOL     OW17895   5.313   0.115   4.115  0.2303 -0.2431 -0.2933
 4677SOL    HW117896   5.224   0.088   4.092  0.3246 -2.4342  1.6938
 4677SOL    HW217897   5.363   0.033   4.115  1.3935  0.4360  2.3181
 4677SOL     MW17898   5.308   0.101   4.112  0.3915 -0.4367  0.2952
 4678SOL     OW17899   3.543   2.554   3.990 -0.3267  0.4002  0.8355
 4678SOL    HW117900   3.622   2.554   4.043  0.7985 -0.8117 -0.8007
 4678SOL    HW217901   3.490   2.483   4.027  0.9540 -1.2063 -0.3409
 4678SOL     MW17902   3.546   2.545   4.001 -0.0188  0.0396  0.4754
 4679SOL     OW17903   2.000   1.859   0.159  0.1865  0.2607  0.2888
 4679SOL    HW117904   2.027   1.856   0.067 -0.4201  0.7265  0.0954
 4679SOL    HW217905   2.023   1.948   0.188 -0.0395  0.2652  0.4567
 4679SOL     MW17906   2.007   1.870   0.151  0.0796  0.3209  0.2856
 4680SOL     OW17907   5.609   2.806   0.615  0.1911  0.3168 -0.0652
 4680SOL    HW117908   5.601   2.763   0.530  0.6515 -0.2903  0.1915
 4680SOL    HW217909   5.597   2.899   0.597 -0.2757  0.1304 -0.7109
 4680SOL     MW17910   5.607   2.812   0.602  0.1898  0.2153 -0.1150
 4681SOL     OW17911   3.991   4.459   2.465  0.4886 -0.4453  0.4537
 4681SOL    HW117912   3.997   4.510   2.546  0.1168  0.5977 -0.1667
 4681SOL    HW217913   4.081   4.458   2.431  0.4448  0.0452  0.3196
 4681SOL     MW17914   4.003   4.466   2.471  0.4354 -0.2494  0.3572
 4682SOL     OW17915   3.071   4.586   3.961  0.1065 -0.2059  0.5765
 4682SOL    HW117916   3.017   4.635   3.898  2.9895 -0.0363 -1.8788
 4682SOL    HW217917   3.144   4.645   3.980  1.5792 -2.0050  0.6209
 4682SOL     MW17918   3.073   4.600   3.955  0.6640 -0.4144  0.2677
 4683SOL     OW17919   1.923   2.221   2.935  0.4238  0.3719 -0.5299
 4683SOL    HW117920   1.834   2.211   2.901  1.1469  0.3823 -2.5204
 4683SOL    HW217921   1.933   2.151   2.999 -0.5642 -0.4957 -1.3087
 4683SOL     MW17922   1.913   2.211   2.939  0.3898  0.2620 -0.8845
 4684SOL     OW17923   4.632   4.258   4.800  0.0662 -0.2834  0.2269
 4684SOL    HW117924   4.702   4.194   4.802  0.5595  0.2438 -0.0834
 4684SOL    HW217925   4.566   4.224   4.861 -0.4508 -1.9678 -1.2090
 4684SOL     MW17926   4.632   4.245   4.808  0.0629 -0.4315  0.0033
 4685SOL     OW17927   3.374   3.166   0.596  0.3030 -0.0813  0.0452
 4685SOL    HW117928   3.443   3.132   0.539  0.1063 -0.9573  0.3154
 4685SOL    HW217929   3.396   3.259   0.608 -0.3263  0.4246 -2.4405
 4685SOL     MW17930   3.386   3.174   0.591  0.1974 -0.1287 -0.2384
 4686SOL     OW17931   0.699   0.518   4.546 -0.3117 -0.0309  0.1420
 4686SOL    HW117932   0.775   0.472   4.580  0.3538  1.3200  0.4865
 4686SOL    HW217933   0.721   0.538   4.455  0.3354  1.5957  0.6382
 4686SOL     MW17934   0.711   0.515   4.538 -0.1436  0.3502  0.2499
 4687SOL     OW17935   0.695   4.397   5.563 -0.2978 -0.1603  0.5384
 4687SOL    HW117936   0.743   4.363   5.639  1.2085  1.7574  0.4859
 4687SOL    HW217937   0.635   4.462   5.599  0.1571  0.4873  0.1472
 4687SOL     MW17938   0.694   4.401   5.577 -0.0467  0.1678  0.4811
 4688SOL     OW17939   2.408   2.251   2.165  0.0925 -0.0708 -0.0359
 4688SOL    HW117940   2.342   2.242   2.097 -1.0465  0.3440  0.9888
 4688SOL    HW217941   2.447   2.164   2.173  1.7594  0.3677 -2.6945
 4688SOL     MW17942   2.404   2.239   2.157  0.1600  0.0386 -0.2453
 4689SOL     OW17943   0.797   5.206   1.077  0.0285 -0.1211  0.1860
 4689SOL    HW117944   0.759   5.283   1.119  0.0080 -1.2712  2.3384
 4689SOL    HW217945   0.728   5.173   1.019 -0.5703  0.4524  0.5720
 4689SOL     MW17946   0.784   5.211   1.075 -0.0508 -0.1950  0.5111
 4690SOL     OW17947   0.728   0.742   0.927  0.0463 -0.1563 -0.0854
 4690SOL    HW117948   0.738   0.815   0.865  0.1380 -0.1932 -0.1143
 4690SOL    HW217949   0.773   0.773   1.006 -2.9104  1.2531  1.1158
 4690SOL     MW17950   0.735   0.756   0.929 -0.3204  0.0194  0.0646
 4691SOL     OW17951   3.746   3.515   5.699  0.4243 -0.8584  0.5511
 4691SOL    HW117952   3.830   3.471   5.709  0.7330 -0.4470 -0.2312
 4691SOL    HW217953   3.721   3.540   5.788  0.7147 -1.7362  0.8806
 4691SOL     MW17954   3.753   3.513   5.712  0.5009 -0.9179  0.4935
 4692SOL     OW17955   5.337   0.468   0.575  0.2039 -0.0338  0.2978
 4692SOL    HW117956   5.304   0.394   0.524 -0.4909  0.8443 -0.5457
 4692SOL    HW217957   5.425   0.485   0.542 -0.0509  0.2052 -0.2610
 4692SOL     MW17958   5.344   0.461   0.564  0.0825  0.1092  0.1182
 4693SOL     OW17959   4.197   1.226   2.407  0.8619 -0.4381 -0.5141
 4693SOL    HW117960   4.171   1.218   2.499  2.5987  0.3967  0.0802
 4693SOL    HW217961   4.186   1.319   2.387  2.1253 -0.3018 -0.6227
 4693SOL     MW17962   4.193   1.237   2.416  1.2460 -0.3139 -0.4516
 4694SOL     OW17963   2.991   0.782   2.498  0.3252 -0.1546 -0.1813
 4694SOL    HW117964   3.022   0.708   2.445 -1.1343 -1.2694  0.4751
 4694SOL    HW217965   2.896   0.779   2.491  0.2627  2.0286 -0.5934
 4694SOL     MW17966   2.983   0.772   2.490  0.1309 -0.0178 -0.1500
 4695SOL     OW17967   3.164   2.240   0.096 -0.8195  0.2528  0.1355
 4695SOL    HW117968   3.144   2.267   0.185  0.0827 -3.1429  1.4296
 4695SOL    HW217969   3.244   2.189   0.103 -1.5320 -1.3286 -2.3958
 4695SOL     MW17970   3.171   2.237   0.108 -0.7954 -0.3843 -0.0229
 4696SOL     OW17971   0.410   1.404   0.768 -0.6187 -0.5509  0.0078
 4696SOL    HW117972   0.447   1.348   0.836  1.5856 -1.4525 -1.8548
 4696SOL    HW217973   0.397   1.345   0.693  0.6701  1.1817 -1.6229
 4696SOL     MW17974   0.413   1.389   0.767 -0.1715 -0.4445 -0.4394
 4697SOL     OW17975   2.789   2.687   1.836 -0.9579 -0.6115 -0.4090
 4697SOL    HW117976   2.754   2.771   1.806  0.9080  0.4214  0.1995
 4697SOL    HW217977   2.797   2.634   1.756 -2.0636 -0.1861 -0.8065
 4697SOL     MW17978   2.786   2.691   1.822 -0.8605 -0.4249 -0.3819
 4698SOL     OW17979   4.657   5.534   4.381  0.7303 -0.4607 -0.2296
 4698SOL    HW117980   4.700   5.512   4.464 -1.0899 -0.1800  0.8134
 4698SOL    HW217981   4.687   5.622   4.361 -1.4771  0.8968  1.9874
 4698SOL     MW17982   4.666   5.542   4.389  0.2151 -0.2508  0.1879
 4699SOL     OW17983   1.730   3.732   5.611  0.3537 -0.0612 -0.0107
 4699SOL    HW117984   1.660   3.717   5.675  1.0141 -0.1639  0.6878
 4699SOL    HW217985   1.684   3.751   5.529 -0.4924 -1.7876  0.0481
 4699SOL     MW17986   1.715   3.733   5.608  0.3299 -0.2956  0.0858
 4700SOL     OW17987   0.995   2.788   0.602  0.1086  0.3937 -0.2376
 4700SOL    HW117988   0.973   2.799   0.695 -0.1723 -0.2819 -0.2213
 4700SOL    HW217989   0.957   2.864   0.559 -0.0067  0.5652  0.1663
 4700SOL     MW17990   0.987   2.799   0.608  0.0579  0.3293 -0.1838
 4701SOL     OW17991   3.709   3.268   3.314 -0.0774 -0.2372 -0.2921
 4701SOL    HW117992   3.668   3.308   3.238 -0.2426 -0.9145 -0.5572
 4701SOL    HW217993   3.653   3.194   3.336 -0.0361 -0.0394  0.4947
 4701SOL     MW17994   3.697   3.263   3.307 -0.0935 -0.2987 -0.2253
 4702SOL     OW17995   1.163   5.310   2.113  0.2380  0.4170 -0.2747
 4702SOL    HW117996   1.078   5.308   2.068  0.8738  0.2458 -1.4955
 4702SOL    HW217997   1.195   5.399   2.099 -1.8129  2.0263  4.2130
 4702SOL     MW17998   1.156   5.321   2.105  0.0566  0.6013  0.1433
 4703SOL     OW17999   2.131   3.997   2.627  0.0975  0.3810  0.3084
 4703SOL    HW118000   2.195   3.926   2.631  1.2100  1.2823 -1.0016
 4703SOL    HW218001   2.053   3.957   2.587  1.1879  0.1941 -1.7172
 4703SOL     MW18002   2.129   3.983   2.622  0.3796  0.4725 -0.1185
 4704SOL     OW18003   4.990   2.880   1.402 -0.2111 -0.4732  0.2538
 4704SOL    HW118004   4.929   2.908   1.470  0.7559 -2.5351  2.0088
 4704SOL    HW218005   5.005   2.959   1.350 -3.7196  0.2874  0.2495
 4704SOL     MW18006   4.984   2.894   1.404 -0.5360 -0.6397  0.4779
 4705SOL     OW18007   4.676   1.948   2.334 -0.1163 -0.0939 -0.1445
 4705SOL    HW118008   4.697   1.936   2.242  1.2787  0.2679  0.1222
 4705SOL    HW218009   4.673   1.859   2.369 -0.6550 -0.2322 -0.5378
 4705SOL     MW18010   4.678   1.935   2.327 -0.0067 -0.0652 -0.1607
 4706SOL     OW18011   1.821   0.198   1.155  0.1224 -0.5259  0.4795
 4706SOL    HW118012   1.735   0.238   1.160  1.2043  1.9771 -0.3424
 4706SOL    HW218013   1.880   0.262   1.195  1.8052 -1.5753 -0.2735
 4706SOL     MW18014   1.818   0.211   1.161  0.4764 -0.3398  0.2780
 4707SOL     OW18015   5.455   4.682   1.582  0.1845  0.2544  0.5764
 4707SOL    HW118016   5.535   4.631   1.576 -1.8225 -2.7624 -2.1932
 4707SOL    HW218017   5.404   4.637   1.650 -0.3209  0.4052  0.2972
 4707SOL     MW18018   5.458   4.669   1.590 -0.1369 -0.1125  0.1861
 4708SOL     OW18019   2.981   3.767   0.381 -0.6808 -0.2125 -0.1690
 4708SOL    HW118020   2.956   3.675   0.379 -0.7901 -0.2194  1.1051
 4708SOL    HW218021   3.066   3.768   0.424 -0.7503  0.3046 -0.0389
 4708SOL     MW18022   2.989   3.755   0.386 -0.7036 -0.1471  0.0107
 4709SOL     OW18023   1.718   0.731   5.467  0.4913 -0.0155 -0.3542
 4709SOL    HW118024   1.761   0.686   5.540  1.6767  2.3539  0.4755
 4709SOL    HW218025   1.666   0.663   5.424 -0.0260 -1.5477  2.5228
 4709SOL     MW18026   1.717   0.717   5.471  0.5767  0.0917  0.1202
 4710SOL     OW18027   5.856   3.597   0.862 -0.3157  0.0836  0.1110
 4710SOL    HW118028   5.799   3.673   0.852  0.3208  0.4388 -0.8503
 4710SOL    HW218029   5.944   3.633   0.869 -0.1020 -0.5145  0.5566
 4710SOL     MW18030   5.860   3.611   0.862 -0.2069  0.0527  0.0449
 4711SOL     OW18031   2.031   4.580   2.068  0.2118 -0.3797 -0.2677
 4711SOL    HW118032   2.052   4.524   1.993 -0.9953  1.3397 -1.9587
 4711SOL    HW218033   1.935   4.581   2.071  0.2416  0.4246  0.6319
 4711SOL     MW18034   2.021   4.573   2.059  0.0610 -0.0572 -0.3691
 4712SOL     OW18035   3.633   4.209   1.899 -0.2500  0.1865  0.3325
 4712SOL    HW118036   3.698   4.233   1.833 -0.3790  0.1365  0.1873
 4712SOL    HW218037   3.678   4.220   1.983 -0.6331  2.0010  0.3297
 4712SOL     MW18038   3.647   4.213   1.901 -0.3154  0.4120  0.3135
 4713SOL     OW18039   3.135   3.436   2.959  0.1555 -0.4243 -0.1532
 4713SOL    HW118040   3.210   3.487   2.989  0.8517 -1.2863 -0.4089
 4713SOL    HW218041   3.166   3.392   2.879 -0.2377 -1.7196  0.3905
 4713SOL     MW18042   3.148   3.437   2.952  0.1941 -0.7005 -0.1163
 4714SOL     OW18043   0.578   3.819   0.652 -0.4163  0.2881  0.2236
 4714SOL    HW118044   0.656   3.863   0.617  1.0854 -1.2667  1.5535
 4714SOL    HW218045   0.592   3.726   0.632  0.2064 -0.5912  4.2838
 4714SOL     MW18046   0.590   3.813   0.645 -0.1444 -0.0236  0.9136
 4715SOL     OW18047   5.538   0.150   0.811  0.0653  0.3909 -0.5582
 4715SOL    HW118048   5.469   0.215   0.801  0.0206  0.4279 -0.0238
 4715SOL    HW218049   5.496   0.066   0.791  0.1134  0.5171 -1.2080
 4715SOL     MW18050   5.524   0.147   0.807  0.0653  0.4118 -0.5730
 4716SOL     OW18051   5.740   5.922   1.396  0.4958 -0.9356  0.0436
 4716SOL    HW118052   5.677   5.930   1.468 -1.2859 -1.9423 -1.3442
 4716SOL    HW218053   5.738   6.008   1.354 -0.8153 -1.3038 -0.6666
 4716SOL     MW18054   5.731   5.934   1.400  0.0992 -1.1115 -0.2251
 4717SOL     OW18055   3.612   4.438   2.605  0.2401  0.1921 -0.1449
 4717SOL    HW118056   3.528   4.450   2.560  0.1045  0.3705  0.1601
 4717SOL    HW218057   3.656   4.370   2.553  0.6850  1.4212 -1.4034
 4717SOL     MW18058   3.606   4.431   2.592  0.2797  0.3724 -0.2668
 4718SOL     OW18059   5.463   3.165   4.640 -0.5330 -0.9143  0.2116
 4718SOL    HW118060   5.514   3.223   4.696 -1.8545  0.3500  0.1237
 4718SOL    HW218061   5.467   3.080   4.685  2.3325 -1.0752 -0.2335
 4718SOL     MW18062   5.470   3.161   4.653 -0.3357 -0.7730  0.1431
 4719SOL     OW18063   4.290   0.656   2.737 -0.3907  0.4717  0.2919
 4719SOL    HW118064   4.284   0.718   2.809 -0.6491  0.4213  0.3135
 4719SOL    HW218065   4.200   0.647   2.705 -0.2414  0.6903 -0.1990
 4719SOL     MW18066   4.278   0.662   2.742 -0.4048  0.4932  0.2317
 4720SOL     OW18067   3.748   2.984   2.798  0.1511  0.1345  0.2459
 4720SOL    HW118068   3.740   3.077   2.778  2.3499 -0.0567 -1.7671
 4720SOL    HW218069   3.842   2.969   2.805 -0.1933 -1.8694  0.9410
 4720SOL     MW18070   3.759   2.994   2.796  0.3884 -0.1464  0.0775
 4721SOL     OW18071   4.704   0.562   3.475  0.2591 -0.2957 -0.3973
 4721SOL    HW118072   4.666   0.475   3.463  1.1697 -0.9564  1.3706
 4721SOL    HW218073   4.632   0.622   3.455 -0.6240 -1.4566 -0.7755
 4721SOL     MW18074   4.690   0.558   3.471  0.2627 -0.5289 -0.2193
 4722SOL     OW18075   1.875   2.162   4.326 -0.5952  0.2140  0.2008
 4722SOL    HW118076   1.965   2.185   4.303 -0.4639 -1.3268 -0.8846
 4722SOL    HW218077   1.839   2.123   4.247 -2.4494  1.4116  0.4157
 4722SOL     MW18078   1.882   2.160   4.313 -0.8157  0.1700  0.0887
 4723SOL     OW18079   0.859   2.385   1.596 -0.2997 -0.1837  0.1525
 4723SOL    HW118080   0.842   2.442   1.521  2.6081  0.2686 -0.2234
 4723SOL    HW218081   0.890   2.444   1.664  0.2093 -0.9728  0.6127
 4723SOL     MW18082   0.861   2.400   1.595  0.1377 -0.2267  0.1632
 4724SOL     OW18083   1.944   1.654   0.855 -0.3548  0.1341  0.7098
 4724SOL    HW118084   1.993   1.692   0.928  2.6474 -2.0720 -0.0569
 4724SOL    HW218085   1.923   1.565   0.884 -0.9168 -0.0812 -0.3183
 4724SOL     MW18086   1.948   1.648   0.868 -0.0426 -0.1758  0.4801
 4725SOL     OW18087   1.425   5.230   0.398 -0.5017 -0.5438  0.5044
 4725SOL    HW118088   1.413   5.143   0.437 -2.4574 -0.0707  1.0665
 4725SOL    HW218089   1.337   5.269   0.402  0.0295  0.8627 -1.1766
 4725SOL     MW18090   1.412   5.224   0.404 -0.6839 -0.3033  0.3612
 4726SOL     OW18091   3.839   4.939   3.054 -0.0729 -0.3400 -0.7406
 4726SOL    HW118092   3.921   4.909   3.015  0.4407 -0.9454  0.7830
 4726SOL    HW218093   3.832   5.031   3.028  1.2525 -0.1947 -0.5965
 4726SOL     MW18094   3.849   4.947   3.045  0.1626 -0.3986 -0.5271
 4727SOL     OW18095   2.578   0.680   5.637  0.1588  0.5892 -0.1035
 4727SOL    HW118096   2.627   0.668   5.555 -1.4906 -0.8461 -0.9223
 4727SOL    HW218097   2.490   0.646   5.617 -0.7527  1.7820  1.7603
 4727SOL     MW18098   2.573   0.674   5.624 -0.1688  0.5582  0.0300
 4728SOL     OW18099   5.703   3.661   4.889  0.6453  0.1964  0.3395
 4728SOL    HW118100   5.751   3.744   4.882  2.2813 -0.9416 -3.1112
 4728SOL    HW218101   5.758   3.607   4.946  0.1842  1.0428  1.6083
 4728SOL     MW18102   5.716   3.665   4.896  0.7954  0.1590  0.0601
 4729SOL     OW18103   4.752   4.866   5.149  0.0124 -0.4441 -0.0967
 4729SOL    HW118104   4.835   4.819   5.138 -0.0891 -0.5371 -0.4820
 4729SOL    HW218105   4.721   4.841   5.236 -0.2325 -1.4119 -0.4520
 4729SOL     MW18106   4.758   4.857   5.158 -0.0319 -0.5798 -0.1917
 4730SOL     OW18107   0.291   2.030   0.281  0.6193  0.0926  0.1686
 4730SOL    HW118108   0.302   1.935   0.278  1.2451  0.1663  0.1434
 4730SOL    HW218109   0.273   2.054   0.190 -0.1995 -0.0791  0.2806
 4730SOL     MW18110   0.290   2.021   0.269  0.5946  0.0801  0.1798
 4731SOL     OW18111   5.013   0.370   0.666  0.3988 -0.2779 -0.4974
 4731SOL    HW118112   5.042   0.288   0.626  1.8641 -0.1336  0.2294
 4731SOL    HW218113   4.919   0.358   0.682  0.8059 -2.2014  0.5119
 4731SOL     MW18114   5.004   0.358   0.663  0.6385 -0.5057 -0.2751
 4732SOL     OW18115   5.460   2.078   1.510  0.3627 -0.0825 -0.2213
 4732SOL    HW118116   5.486   2.127   1.588 -4.0613  0.3314  1.1022
 4732SOL    HW218117   5.508   1.995   1.517  3.5034  1.7016  0.5008
 4732SOL     MW18118   5.470   2.073   1.521  0.1984  0.1988  0.0404
 4733SOL     OW18119   4.566   4.714   2.165 -0.2693  0.5311 -0.1441
 4733SOL    HW118120   4.510   4.786   2.135 -2.5605 -0.5567  1.3464
 4733SOL    HW218121   4.571   4.725   2.260  1.8419  0.4327 -0.2206
 4733SOL     MW18122   4.559   4.725   2.173 -0.2923  0.3796  0.0370
 4734SOL     OW18123   2.699   4.012   5.638  0.1020 -0.0178 -0.8794
 4734SOL    HW118124   2.618   3.997   5.687  0.3928  0.1827 -0.3307
 4734SOL    HW218125   2.693   3.954   5.562  0.2772 -1.3475  0.1065
 4734SOL     MW18126   2.688   4.003   5.634  0.1616 -0.1621 -0.6833
 4735SOL     OW18127   5.653   1.895   0.837 -0.8283 -0.0390 -0.4131
 4735SOL    HW118128   5.597   1.960   0.795  0.0510  0.7630 -0.3595
 4735SOL    HW218129   5.627   1.811   0.799 -2.7021  0.2065  0.2769
 4735SOL     MW18130   5.642   1.892   0.827 -0.9561  0.0949 -0.3179
 4736SOL     OW18131   4.976   5.597   3.388  0.5046  0.5153  0.1966
 4736SOL    HW118132   4.885   5.594   3.418  0.7752  2.2603  1.2567
 4736SOL    HW218133   4.971   5.589   3.293 -0.7630  0.7400  0.2383
 4736SOL     MW18134   4.964   5.595   3.380  0.3767  0.7677  0.3376
 4737SOL     OW18135   2.469   0.303   4.576  0.2600  0.3726  0.2040
 4737SOL    HW118136   2.499   0.230   4.522 -1.3885  0.4531 -0.8621
 4737SOL    HW218137   2.389   0.271   4.618 -0.0117  1.2618  0.3729
 4737SOL     MW18138   2.462   0.290   4.574  0.0143  0.4968  0.0892
 4738SOL     OW18139   2.361   3.357   3.074 -0.2056 -0.0210 -0.4325
 4738SOL    HW118140   2.349   3.371   3.168 -2.1434 -0.0013 -0.6503
 4738SOL    HW218141   2.424   3.285   3.068 -1.3805 -1.2090  0.9363
 4738SOL     MW18142   2.367   3.349   3.085 -0.6042 -0.1707 -0.2854
 4739SOL     OW18143   0.163   1.095   0.773  0.0268 -0.2835  0.3825
 4739SOL    HW118144   0.095   1.039   0.734 -0.3534 -0.4579  1.2951
 4739SOL    HW218145   0.188   1.154   0.702 -0.5164 -0.7346 -0.1974
 4739SOL     MW18146   0.158   1.095   0.759 -0.0914 -0.3635  0.4251
 4740SOL     OW18147   2.384   2.308   4.416  0.5020  0.1268  0.4624
 4740SOL    HW118148   2.330   2.364   4.360  0.2415 -0.5239  0.0614
 4740SOL    HW218149   2.403   2.363   4.492  0.2026  0.7451  0.0984
 4740SOL     MW18150   2.379   2.322   4.419  0.4303  0.1228  0.3638
 4741SOL     OW18151   2.476   1.911   3.725 -0.0075  0.2206 -0.4788
 4741SOL    HW118152   2.527   1.992   3.722  1.0216 -0.4409 -1.4269
 4741SOL    HW218153   2.532   1.846   3.682 -1.1853 -0.7908 -0.5160
 4741SOL     MW18154   2.490   1.913   3.719 -0.0262  0.0066 -0.6051
 4742SOL     OW18155   5.061   4.464   4.299  0.0190 -0.4154 -0.0655
 4742SOL    HW118156   5.116   4.431   4.228 -1.7760 -2.0093 -0.7426
 4742SOL    HW218157   4.984   4.408   4.298 -2.6504  3.1295 -0.5271
 4742SOL     MW18158   5.058   4.453   4.290 -0.5527 -0.1655 -0.2112
 4743SOL     OW18159   0.105   5.934   2.782  0.7677 -0.2543  0.7404
 4743SOL    HW118160   0.134   5.881   2.708  1.6158  1.0305  0.1255
 4743SOL    HW218161   0.041   5.879   2.828  2.1051 -2.0432  0.5037
 4743SOL     MW18162   0.100   5.920   2.779  1.0475 -0.3190  0.6313
 4744SOL     OW18163   2.883   5.188   5.078 -0.8483  0.4992  0.1151
 4744SOL    HW118164   2.969   5.174   5.117 -1.3879  1.1241  1.5549
 4744SOL    HW218165   2.900   5.244   5.002 -0.1266  1.6232  1.0997
 4744SOL     MW18166   2.896   5.193   5.073 -0.8249  0.7234  0.4253
 4745SOL     OW18167   0.451   5.633   1.560 -0.1895 -0.0603  0.2896
 4745SOL    HW118168   0.406   5.606   1.480  0.0440 -0.3898  0.2679
 4745SOL    HW218169   0.397   5.596   1.631 -0.7054  0.7048  0.3044
 4745SOL     MW18170   0.438   5.625   1.559 -0.2256 -0.0048  0.2887
 4746SOL     OW18171   5.444   4.438   4.370  0.3998 -0.0012 -0.7221
 4746SOL    HW118172   5.500   4.498   4.321  0.7020 -0.5707 -1.0676
 4746SOL    HW218173   5.365   4.489   4.388  0.8281  0.6402 -0.6529
 4746SOL     MW18174   5.441   4.452   4.366  0.4935  0.0081 -0.7572
 4747SOL     OW18175   0.916   3.222   0.002 -0.0939 -0.5107 -0.0787
 4747SOL    HW118176   0.979   3.274  -0.046 -0.8408  3.3921  2.9355
 4747SOL    HW218177   0.846   3.283   0.024 -1.9438 -3.2541  1.9416
 4747SOL     MW18178   0.915   3.236  -0.001 -0.4263 -0.3622  0.5655
 4748SOL     OW18179   3.604   4.070   0.706  0.0410  0.0335  0.1320
 4748SOL    HW118180   3.568   4.096   0.791 -0.6648 -1.1987  0.2257
 4748SOL    HW218181   3.532   4.024   0.662  0.6102  0.0659 -0.8643
 4748SOL     MW18182   3.590   4.067   0.711  0.0236 -0.1202  0.0164
 4749SOL     OW18183   4.459   3.814   5.484  0.5557  0.2189 -0.1285
 4749SOL    HW118184   4.500   3.826   5.398  2.6317 -1.9106  0.5245
 4749SOL    HW218185   4.527   3.839   5.546 -0.4850  0.4394  0.9349
 4749SOL     MW18186   4.473   3.819   5.481  0.6886 -0.0255  0.0916
 4750SOL     OW18187   4.953   3.791   0.655  0.4261  0.1114  0.2799
 4750SOL    HW118188   4.861   3.814   0.667 -0.6609 -5.2434  3.8627
 4750SOL    HW218189   4.999   3.845   0.719 -0.5624  0.8321  0.3982
 4750SOL     MW18190   4.947   3.801   0.665  0.1602 -0.4818  0.7537
 4751SOL     OW18191   2.916   5.488   3.816 -0.0651  0.0220  0.4404
 4751SOL    HW118192   2.936   5.491   3.909 -2.4769  1.9296  0.9630
 4751SOL    HW218193   2.921   5.579   3.787 -2.2141 -0.1367 -0.5850
 4751SOL     MW18194   2.919   5.500   3.824 -0.6490  0.2465  0.3760
 4752SOL     OW18195   5.446   2.840   0.831  0.5414 -0.6094  0.2144
 4752SOL    HW118196   5.355   2.815   0.816  0.1437 -0.7386  2.6332
 4752SOL    HW218197   5.491   2.816   0.750 -2.1435  2.6201 -2.3374
 4752SOL     MW18198   5.440   2.834   0.819  0.1469 -0.2127  0.1974
 4753SOL     OW18199   3.000   1.882   5.198 -0.2735 -0.4215  0.1313
 4753SOL    HW118200   3.025   1.806   5.251 -1.5628 -2.7092 -2.3776
 4753SOL    HW218201   3.009   1.852   5.108 -1.0268  2.3741 -0.9292
 4753SOL     MW18202   3.004   1.868   5.193 -0.5348 -0.3566 -0.3257
 4754SOL     OW18203   3.744   3.118   2.488 -0.3114 -0.7214  0.1330
 4754SOL    HW118204   3.714   3.181   2.553 -1.3904 -0.0941 -0.9448
 4754SOL    HW218205   3.839   3.124   2.491 -0.3996  1.3989 -0.3390
 4754SOL     MW18206   3.752   3.127   2.497 -0.4613 -0.3695 -0.0653
 4755SOL     OW18207   0.622   1.301   4.373 -0.3150 -0.3517 -0.3475
 4755SOL    HW118208   0.580   1.366   4.316 -2.0258 -1.1212 -0.0044
 4755SOL    HW218209   0.567   1.223   4.363  0.8092 -1.2470  0.4592
 4755SOL     MW18210   0.609   1.299   4.364 -0.3902 -0.5648 -0.2007
 4756SOL     OW18211   4.472   4.963   2.110 -0.2898  0.0792 -0.0445
 4756SOL    HW118212   4.547   4.967   2.051  1.4418 -2.7185  1.7803
 4756SOL    HW218213   4.505   5.000   2.192 -0.8659 -1.1894  0.7763
 4756SOL     MW18214   4.486   4.968   2.113 -0.1416 -0.4411  0.2942
 4757SOL     OW18215   2.384   2.626   1.973  0.0493  0.0098  0.2454
 4757SOL    HW118216   2.465   2.576   1.983 -0.0674 -0.2765 -0.2129
 4757SOL    HW218217   2.344   2.625   2.060  1.1034  1.1498  0.7623
 4757SOL     MW18218   2.390   2.620   1.985  0.1693  0.1190  0.2528
 4758SOL     OW18219   2.610   0.580   5.368  0.0823 -0.2812  0.3102
 4758SOL    HW118220   2.550   0.642   5.325  1.4832 -1.1382 -2.9952
 4758SOL    HW218221   2.576   0.494   5.344  1.4110 -0.7815  0.2097
 4758SOL     MW18222   2.598   0.577   5.360  0.4315 -0.4549 -0.1259
 4759SOL     OW18223   5.612   2.728   1.018  0.8760  0.1145 -0.3313
 4759SOL    HW118224   5.545   2.774   0.968  0.5637  0.5398  0.4671
 4759SOL    HW218225   5.669   2.797   1.052  1.2601 -0.1911 -0.3522
 4759SOL     MW18226   5.611   2.743   1.016  0.8855  0.1297 -0.2319
 4760SOL     OW18227   1.037   4.377   1.274  0.1441 -0.1699  0.1618
 4760SOL    HW118228   0.994   4.292   1.269  0.2573 -0.1821 -0.6303
 4760SOL    HW218229   1.088   4.383   1.193 -0.2920  0.8852 -0.0401
 4760SOL     MW18230   1.038   4.367   1.263  0.1028 -0.0367  0.0346
 4761SOL     OW18231   3.402   2.572   3.471  0.3047 -0.1957 -0.1179
 4761SOL    HW118232   3.325   2.537   3.426  0.6600 -1.8773  0.5471
 4761SOL    HW218233   3.463   2.596   3.401 -0.7162  0.9401 -0.6367
 4761SOL     MW18234   3.400   2.571   3.456  0.2196 -0.2656 -0.0992
 4762SOL     OW18235   4.349   3.513   0.205  0.5822 -0.1706  0.0784
 4762SOL    HW118236   4.436   3.477   0.219  0.6446  0.2171  0.7045
 4762SOL    HW218237   4.296   3.438   0.177  1.0154 -0.4915  0.1172
 4762SOL     MW18238   4.353   3.499   0.203  0.6456 -0.1621  0.1635
 4763SOL     OW18239   1.081   3.384   4.681  0.2718 -0.3067 -0.5278
 4763SOL    HW118240   1.153   3.324   4.662 -0.6662 -1.0884 -1.7408
 4763SOL    HW218241   1.124   3.467   4.702  1.5635 -1.2399  0.5660
 4763SOL     MW18242   1.095   3.387   4.681  0.3171 -0.5264 -0.5436
 4764SOL     OW18243   2.214   1.523   4.104 -0.3203  0.2436  0.1568
 4764SOL    HW118244   2.126   1.555   4.126 -0.1238  0.5818  0.4620
 4764SOL    HW218245   2.199   1.437   4.064 -0.8806  0.8309 -0.9248
 4764SOL     MW18246   2.201   1.516   4.101 -0.3672  0.3620  0.0567
 4765SOL     OW18247   0.918   3.135   3.461 -0.1623  0.7476  0.6068
 4765SOL    HW118248   0.856   3.068   3.487 -0.1807  0.2936 -0.5782
 4765SOL    HW218249   0.931   3.188   3.540 -2.2300  1.0058  0.8007
 4765SOL     MW18250   0.912   3.133   3.474 -0.4293  0.7222  0.4797
 4766SOL     OW18251   4.683   2.730   2.164 -0.0161 -0.0981  0.2796
 4766SOL    HW118252   4.644   2.816   2.178  0.5802 -0.0495  1.8244
 4766SOL    HW218253   4.777   2.746   2.162  0.0581 -0.5977 -0.3534
 4766SOL     MW18254   4.690   2.743   2.166  0.0696 -0.1559  0.3963
 4767SOL     OW18255   1.181   3.358   3.359  0.1036 -0.0849  0.2330
 4767SOL    HW118256   1.188   3.331   3.267  0.2373 -0.7357  0.4333
 4767SOL    HW218257   1.149   3.280   3.405  1.7711 -0.3150  1.0383
 4767SOL     MW18258   1.178   3.344   3.353  0.3341 -0.1976  0.3617
 4768SOL     OW18259   0.695   0.089   4.611 -0.2689 -0.7464 -0.4827
 4768SOL    HW118260   0.665   0.018   4.667 -1.6453  0.5426  0.4659
 4768SOL    HW218261   0.790   0.090   4.622 -0.4896 -0.6973  1.6270
 4768SOL     MW18262   0.703   0.080   4.620 -0.4734 -0.5751 -0.0920
 4769SOL     OW18263   2.229   3.182   2.074  0.4670  0.2654 -0.3581
 4769SOL    HW118264   2.144   3.201   2.034  0.6354 -0.2074 -0.9684
 4769SOL    HW218265   2.286   3.253   2.045  0.3914  0.3391 -0.3246
 4769SOL     MW18266   2.225   3.193   2.065  0.4787  0.2143 -0.4318
 4770SOL     OW18267   1.266   5.508   4.613  0.1505 -0.1762 -0.2472
 4770SOL    HW118268   1.292   5.597   4.635 -0.2124 -0.0889 -0.1623
 4770SOL    HW218269   1.335   5.453   4.648 -0.4528 -0.0467  1.1563
 4770SOL     MW18270   1.278   5.513   4.620  0.0268 -0.1483 -0.0563
 4771SOL     OW18271   4.050   2.020   4.796  0.2325  0.4067  0.2593
 4771SOL    HW118272   4.003   2.007   4.878  0.1301  0.3823  0.1977
 4771SOL    HW218273   4.056   1.933   4.757  0.4443  0.3902  0.3279
 4771SOL     MW18274   4.045   2.007   4.801  0.2465  0.4015  0.2599
 4772SOL     OW18275   5.334   1.034   1.919 -0.2391 -0.1322 -0.7488
 4772SOL    HW118276   5.362   1.119   1.887  0.2351 -0.5941 -1.5881
 4772SOL    HW218277   5.291   0.993   1.844 -2.4201  0.2207  0.2757
 4772SOL     MW18278   5.332   1.039   1.906 -0.4578 -0.1462 -0.7252
 4773SOL     OW18279   0.821   5.782   0.713  0.3377 -0.0405  0.3443
 4773SOL    HW118280   0.725   5.787   0.707  0.3846 -0.6801 -1.5186
 4773SOL    HW218281   0.839   5.694   0.745  0.3029  0.0802  0.6949
 4773SOL     MW18282   0.811   5.772   0.716  0.3393 -0.1073  0.1507
 4774SOL     OW18283   3.395   3.432   0.651 -0.1770 -0.1845  0.1217
 4774SOL    HW118284   3.427   3.494   0.586 -1.9024  0.9277  0.2881
 4774SOL    HW218285   3.300   3.443   0.649 -0.4791 -2.4709  0.5144
 4774SOL     MW18286   3.387   3.441   0.642 -0.4365 -0.3350  0.1934
 4775SOL     OW18287   1.196   3.274   5.180 -0.3266  0.2619  0.1357
 4775SOL    HW118288   1.133   3.290   5.251  1.0525  1.7996  1.0295
 4775SOL    HW218289   1.191   3.353   5.126 -0.6181 -0.4696 -0.9202
 4775SOL     MW18290   1.187   3.286   5.182 -0.1873  0.3653  0.1154
 4776SOL     OW18291   0.177   5.734   2.578  0.1745  0.1578  0.0081
 4776SOL    HW118292   0.143   5.653   2.615  2.7863 -2.6219 -3.3101
 4776SOL    HW218293   0.109   5.764   2.517 -0.2702 -0.2457  0.3120
 4776SOL     MW18294   0.164   5.728   2.575  0.4519 -0.2499 -0.3777
 4777SOL     OW18295   3.958   6.000   3.010 -0.1500 -0.7430 -0.4353
 4777SOL    HW118296   3.918   6.087   3.014 -2.0473 -1.6224 -0.0713
 4777SOL    HW218297   3.912   5.956   2.938  0.9527 -1.3819 -0.7607
 4777SOL     MW18298   3.947   6.005   3.001 -0.2515 -0.9373 -0.4303
 4778SOL     OW18299   5.546   3.939   0.469  0.4503 -0.0412  0.2070
 4778SOL    HW118300   5.599   3.866   0.503 -0.0264 -0.5196 -0.0658
 4778SOL    HW218301   5.583   4.017   0.511  0.8138 -0.4646  0.6876
 4778SOL     MW18302   5.558   3.939   0.479  0.4358 -0.1564  0.2336
 4779SOL     OW18303   3.675   3.114   1.530  0.2307 -0.5290  0.4011
 4779SOL    HW118304   3.690   3.037   1.475 -0.0300 -1.1175  1.1527
 4779SOL    HW218305   3.593   3.150   1.497  1.5537  0.8161 -1.5354
 4779SOL     MW18306   3.666   3.109   1.519  0.3669 -0.4320  0.2495
 4780SOL     OW18307   5.456   1.664   2.518 -0.2153 -0.8090  0.4168
 4780SOL    HW118308   5.400   1.642   2.443  1.2469  0.8078 -1.2020
 4780SOL    HW218309   5.399   1.714   2.577 -1.0226 -0.9214 -0.2546
 4780SOL     MW18310   5.441   1.668   2.516 -0.1316 -0.6164  0.1235
 4781SOL     OW18311   2.164   2.130   4.803 -0.2018 -0.1923 -0.1997
 4781SOL    HW118312   2.146   2.181   4.725  0.5868 -1.0940 -0.9934
 4781SOL    HW218313   2.182   2.195   4.871 -1.8249  0.6111 -0.5182
 4781SOL     MW18314   2.164   2.144   4.802 -0.3088 -0.2048 -0.3419
 4782SOL     OW18315   2.564   5.885   4.281  0.2121  0.4884 -0.0222
 4782SOL    HW118316   2.585   5.889   4.188  1.9646 -0.7591  0.3036
 4782SOL    HW218317   2.648   5.871   4.325 -0.7921 -0.7216  1.6085
 4782SOL     MW18318   2.578   5.883   4.275  0.3078  0.1736  0.2284
 4783SOL     OW18319   4.885   0.977   2.406  0.0019  0.4358  0.0612
 4783SOL    HW118320   4.975   1.002   2.389 -1.0098  3.1247 -1.7076
 4783SOL    HW218321   4.891   0.891   2.448  3.2700 -0.4201 -1.9650
 4783SOL     MW18322   4.897   0.969   2.409  0.2913  0.6705 -0.4249
 4784SOL     OW18323   2.282   1.000   2.219  0.2600  0.0544 -0.1776
 4784SOL    HW118324   2.363   0.958   2.247  0.3388  1.0534  1.1242
 4784SOL    HW218325   2.271   1.075   2.278 -2.0577 -0.5591  0.2403
 4784SOL     MW18326   2.291   1.004   2.230 -0.0265  0.1038  0.0424
 4785SOL     OW18327   2.955   3.744   4.228 -0.5175  0.2328 -0.0411
 4785SOL    HW118328   2.945   3.702   4.142 -0.4451 -1.8010  0.9039
 4785SOL    HW218329   3.009   3.682   4.278  0.0057  1.7102  1.2637
 4785SOL     MW18330   2.961   3.731   4.223 -0.4413  0.1614  0.2470
 4786SOL     OW18331   0.457   1.912   1.168  0.4253 -0.5036 -0.1472
 4786SOL    HW118332   0.414   1.931   1.251 -0.0960 -3.7350  0.3837
 4786SOL    HW218333   0.541   1.958   1.173 -0.4102  0.8768  1.3497
 4786SOL     MW18334   0.462   1.920   1.179  0.2516 -0.7406  0.1123
 4787SOL     OW18335   0.341   1.137   3.507  0.3813  0.2129 -0.1448
 4787SOL    HW118336   0.282   1.069   3.475  1.2135  0.4592 -2.3080
 4787SOL    HW218337   0.286   1.192   3.562 -1.3519  0.1953 -1.7843
 4787SOL     MW18338   0.327   1.136   3.510  0.2660  0.2422 -0.6316
 4788SOL     OW18339   3.991   3.722   1.283 -0.1815 -0.1061  0.0447
 4788SOL    HW118340   4.074   3.674   1.273  0.0611 -0.0184  1.4740
 4788SOL    HW218341   4.017   3.811   1.306 -0.6810 -0.1584  0.8119
 4788SOL     MW18342   4.005   3.727   1.285 -0.2141 -0.1016  0.3259
 4789SOL     OW18343   4.441   4.676   4.375  0.2629 -0.3175 -0.0054
 4789SOL    HW118344   4.465   4.636   4.458  0.7984 -0.8418 -0.4054
 4789SOL    HW218345   4.367   4.732   4.395  0.9588  0.2525  0.9960
 4789SOL     MW18346   4.435   4.678   4.388  0.4206 -0.3119  0.0720
 4790SOL     OW18347   2.696   5.362   3.748 -0.7598 -0.1717 -0.2324
 4790SOL    HW118348   2.625   5.404   3.796 -0.2981  2.0717 -1.4513
 4790SOL    HW218349   2.774   5.412   3.771 -0.1860 -0.3699 -1.6536
 4790SOL     MW18350   2.697   5.373   3.757 -0.6273  0.0906 -0.5708
 4791SOL     OW18351   4.571   1.380   2.135 -0.2215 -0.2039  0.7908
 4791SOL    HW118352   4.550   1.287   2.124  2.6765 -0.7854  0.0019
 4791SOL    HW218353   4.645   1.381   2.195 -0.2305  1.6180  0.7950
 4791SOL     MW18354   4.578   1.368   2.141  0.1483 -0.0452  0.6907
 4792SOL     OW18355   5.329   1.733   3.360  0.3013  1.1852 -0.9288
 4792SOL    HW118356   5.371   1.809   3.320 -2.1759  1.6623 -2.7492
 4792SOL    HW218357   5.235   1.754   3.358 -0.2836 -1.1983  0.0915
 4792SOL     MW18358   5.322   1.746   3.355 -0.0906  0.9412 -1.0316
 4793SOL     OW18359   0.073   3.778   3.248  0.1322 -0.0886 -0.5025
 4793SOL    HW118360   0.105   3.787   3.338  0.0468 -3.0684 -0.1344
 4793SOL    HW218361  -0.010   3.826   3.246  0.7475  1.0495  0.6358
 4793SOL     MW18362   0.067   3.786   3.259  0.2000 -0.3242 -0.3097
 4794SOL     OW18363   4.014   1.796   4.601 -0.6862  0.2085 -0.2739
 4794SOL    HW118364   4.014   1.703   4.621  0.3716 -0.1519 -1.8418
 4794SOL    HW218365   3.967   1.802   4.518 -1.2611  1.1430  0.1108
 4794SOL     MW18366   4.008   1.785   4.593 -0.6242  0.2820 -0.4244
 4795SOL     OW18367   3.056   3.315   4.850  0.1648  0.1501 -0.1614
 4795SOL    HW118368   3.078   3.258   4.776  0.7238 -0.1893  0.2604
 4795SOL    HW218369   3.137   3.320   4.901 -0.2782  0.2099  0.5405
 4795SOL     MW18370   3.069   3.308   4.847  0.1795  0.1144 -0.0176
 4796SOL     OW18371   5.964   0.787   2.131  0.0881  0.7581 -0.3756
 4796SOL    HW118372   5.953   0.711   2.187 -0.4310  1.8440  1.0295
 4796SOL    HW218373   5.967   0.752   2.042  1.5186 -1.0406  0.3673
 4796SOL     MW18374   5.963   0.773   2.127  0.2050  0.6668 -0.1006
 4797SOL     OW18375   4.848   1.085   5.564 -0.6803  0.8963  0.3129
 4797SOL    HW118376   4.796   1.065   5.642 -0.9105 -1.9385 -0.4907
 4797SOL    HW218377   4.791   1.060   5.491  1.0911 -0.4958 -0.6326
 4797SOL     MW18378   4.834   1.079   5.565 -0.4830  0.3552  0.0892
 4798SOL     OW18379   3.694   1.951   4.690 -0.4481 -0.1923 -0.2834
 4798SOL    HW118380   3.729   1.862   4.694  0.3897  0.1939  1.8312
 4798SOL    HW218381   3.637   1.951   4.613  0.9206 -2.0409 -1.3607
 4798SOL     MW18382   3.691   1.939   4.680 -0.1655 -0.3794 -0.1507
 4799SOL     OW18383   4.262   1.909   3.271 -0.5310  0.3588  0.3529
 4799SOL    HW118384   4.197   1.842   3.293 -0.6486  0.2709 -0.2489
 4799SOL    HW218385   4.227   1.951   3.193 -1.5197  2.5392  1.9036
 4799SOL     MW18386   4.249   1.906   3.264 -0.6723  0.6268  0.4742
 4800SOL     OW18387   3.299   4.943   3.456  0.8090 -0.1158 -0.3023
 4800SOL    HW118388   3.381   4.909   3.491  0.5416 -0.6492 -0.1848
 4800SOL    HW218389   3.231   4.887   3.494  0.2145  1.5772  1.1926
 4800SOL     MW18390   3.301   4.931   3.465  0.6988  0.0324 -0.0958
 4801SOL     OW18391   5.212   2.062   5.525  0.3119  0.4221  0.6350
 4801SOL    HW118392   5.162   2.039   5.447  1.4097 -1.2301  0.4213
 4801SOL    HW218393   5.149   2.054   5.597  0.6580 -3.3535  0.5900
 4801SOL     MW18394   5.197   2.058   5.525  0.4969 -0.2725  0.6022
 4802SOL     OW18395   4.738   2.182   5.011  0.1822  0.4292 -0.0153
 4802SOL    HW118396   4.728   2.271   5.046 -1.6511  0.0501  0.4585
 4802SOL    HW218397   4.731   2.126   5.088 -0.3668 -0.2240 -0.5477
 4802SOL     MW18398   4.736   2.187   5.025 -0.1225  0.2971 -0.0229
 4803SOL     OW18399   2.467   5.846   4.631  0.1079  0.1595 -0.3865
 4803SOL    HW118400   2.398   5.885   4.685  0.0170  2.3926 -2.0070
 4803SOL    HW218401   2.479   5.759   4.666 -2.0527  0.4946  1.3046
 4803SOL     MW18402   2.460   5.840   4.642 -0.1805  0.4883 -0.3777
 4804SOL     OW18403   1.150   2.279   0.290 -0.1099 -0.5499 -0.4145
 4804SOL    HW118404   1.145   2.285   0.195 -0.4249 -0.1461 -0.3702
 4804SOL    HW218405   1.070   2.232   0.315 -0.5010  0.1970 -0.2659
 4804SOL     MW18406   1.139   2.274   0.281 -0.2003 -0.4025 -0.3898
 4805SOL     OW18407   5.861   5.070   2.334 -0.2924  0.3182  0.1080
 4805SOL    HW118408   5.801   5.035   2.400 -0.7745 -0.1735 -0.5829
 4805SOL    HW218409   5.940   5.093   2.383 -0.5370 -0.3160  0.8169
 4805SOL     MW18410   5.864   5.068   2.349 -0.3858  0.1736  0.1104
 4806SOL     OW18411   4.874   0.061   4.476 -0.2019 -0.6360 -0.4429
 4806SOL    HW118412   4.915  -0.021   4.503 -0.1688 -0.6885 -0.6498
 4806SOL    HW218413   4.906   0.126   4.539  1.4314 -0.3714 -1.5291
 4806SOL     MW18414   4.884   0.058   4.488  0.0114 -0.6089 -0.6089
 4807SOL     OW18415   3.305   0.931   3.855  0.2572  0.4326  0.0090
 4807SOL    HW118416   3.210   0.925   3.859  0.3233  0.0325  0.9434
 4807SOL    HW218417   3.335   0.840   3.864  0.6969  0.4563 -1.1467
 4807SOL     MW18418   3.297   0.918   3.856  0.3219  0.3844 -0.0198
 4808SOL     OW18419   5.838   1.191   0.574 -0.0660 -0.2848  0.6193
 4808SOL    HW118420   5.776   1.254   0.538 -0.5784 -1.4087 -0.5428
 4808SOL    HW218421   5.843   1.122   0.507  3.9577  0.7117 -0.2506
 4808SOL     MW18422   5.831   1.190   0.561  0.3839 -0.3010  0.3592
 4809SOL     OW18423   3.496   5.730   1.060  0.0281 -0.4586 -0.1127
 4809SOL    HW118424   3.475   5.746   1.152  1.1231 -1.3190  0.2865
 4809SOL    HW218425   3.481   5.636   1.048  0.3661 -0.4385 -0.6952
 4809SOL     MW18426   3.491   5.720   1.070  0.2117 -0.5665 -0.1363
 4810SOL     OW18427   4.353   5.468   0.805  0.7380 -0.1757  0.6407
 4810SOL    HW118428   4.405   5.503   0.877 -0.4249 -0.8564  1.8286
 4810SOL    HW218429   4.382   5.378   0.795 -2.2836 -1.5010  3.3218
 4810SOL     MW18430   4.363   5.461   0.813  0.2022 -0.4325  1.1361
 4811SOL     OW18431   2.596   1.948   5.661 -0.1848 -0.2954  0.2390
 4811SOL    HW118432   2.570   2.017   5.600  0.1068 -1.0925 -0.7934
 4811SOL    HW218433   2.550   1.871   5.631  2.5460 -1.5094 -1.0432
 4811SOL     MW18434   2.587   1.947   5.650  0.2019 -0.5528 -0.0567
 4812SOL     OW18435   3.830   4.784   4.365 -0.4171 -0.1279 -0.0498
 4812SOL    HW118436   3.895   4.845   4.331 -0.9771  0.4886 -0.0226
 4812SOL    HW218437   3.764   4.779   4.296  0.3681 -1.8792 -0.7081
 4812SOL     MW18438   3.830   4.791   4.352 -0.3884 -0.2732 -0.1302
 4813SOL     OW18439   3.423   2.575   0.976 -0.1951 -0.0479  0.0398
 4813SOL    HW118440   3.497   2.600   1.032  0.1219  2.0910 -1.2676
 4813SOL    HW218441   3.429   2.634   0.901 -1.4903 -1.8469 -1.5415
 4813SOL     MW18442   3.433   2.586   0.973 -0.3204 -0.0043 -0.3300
 4814SOL     OW18443   1.853   0.672   2.195 -0.0143  0.8567 -0.1342
 4814SOL    HW118444   1.814   0.751   2.158  0.6551  0.9812 -0.5898
 4814SOL    HW218445   1.779   0.617   2.221 -0.4918  0.8786 -1.4455
 4814SOL     MW18446   1.839   0.675   2.194  0.0103  0.8755 -0.3605
 4815SOL     OW18447   0.288   5.747   0.481  0.2467 -0.2763 -0.2284
 4815SOL    HW118448   0.274   5.670   0.427  2.2609 -1.8313  1.3349
 4815SOL    HW218449   0.236   5.731   0.560  1.0993 -0.3278  0.3371
 4815SOL     MW18450   0.280   5.735   0.484  0.6137 -0.4821  0.0441
 4816SOL     OW18451   2.455   3.326   2.643  0.2079 -0.0427 -0.4510
 4816SOL    HW118452   2.507   3.400   2.675 -0.3974  0.0076  0.4379
 4816SOL    HW218453   2.475   3.254   2.702 -0.9879  0.0757  0.1117
 4816SOL     MW18454   2.464   3.327   2.654 -0.0226 -0.0210 -0.2654
 4817SOL     OW18455   1.437   2.400   4.164 -0.1407  1.0117 -0.4547
 4817SOL    HW118456   1.458   2.484   4.206  0.2475  0.6368  0.1169
 4817SOL    HW218457   1.353   2.374   4.202  1.0381 -0.1744  1.4298
 4817SOL     MW18458   1.429   2.407   4.174  0.0600  0.8118 -0.1402
 4818SOL     OW18459   5.127   3.405   5.429  0.2510 -0.2703  0.8878
 4818SOL    HW118460   5.185   3.455   5.371 -1.6158  0.0810 -0.7357
 4818SOL    HW218461   5.069   3.357   5.370 -1.9291  0.3446  2.4415
 4818SOL     MW18462   5.127   3.405   5.414 -0.2675 -0.1464  0.8783
 4819SOL     OW18463   2.417   0.806   5.336 -0.0508 -0.4768  0.3033
 4819SOL    HW118464   2.334   0.788   5.379 -0.2602  2.8516  1.4731
 4819SOL    HW218465   2.394   0.822   5.245 -0.4621 -1.1947  0.2790
 4819SOL     MW18466   2.403   0.806   5.330 -0.1302 -0.1426  0.4501
 4820SOL     OW18467   3.317   3.413   4.508 -0.4886  0.5145 -0.6817
 4820SOL    HW118468   3.250   3.351   4.538 -0.8255  0.7184 -1.0148
 4820SOL    HW218469   3.273   3.464   4.440 -0.3965  1.5343  0.0247
 4820SOL     MW18470   3.303   3.412   4.503 -0.5202  0.6711 -0.6342
 4821SOL     OW18471   4.203   5.917   1.866  0.0785 -0.1697 -0.1208
 4821SOL    HW118472   4.239   5.839   1.908 -1.6566 -0.6543  0.5045
 4821SOL    HW218473   4.258   5.930   1.789  0.5591 -1.8614 -0.0928
 4821SOL     MW18474   4.215   5.909   1.861 -0.0820 -0.4482 -0.0371
 4822SOL     OW18475   1.201   4.945   0.941 -0.5726 -0.4180 -0.2227
 4822SOL    HW118476   1.215   5.018   1.002 -0.2967  0.4068 -1.2432
 4822SOL    HW218477   1.252   4.873   0.977  0.0252  0.2245  0.2369
 4822SOL     MW18478   1.209   4.945   0.953 -0.4609 -0.2303 -0.2944
 4823SOL     OW18479   5.651   2.776   5.324 -0.0402  0.1635  0.4414
 4823SOL    HW118480   5.589   2.724   5.274  1.0388  0.7708 -1.6019
 4823SOL    HW218481   5.664   2.727   5.405  0.6672 -2.5672 -1.2597
 4823SOL     MW18482   5.645   2.763   5.328  0.1888 -0.1082 -0.0381
 4824SOL     OW18483   4.223   0.355   4.782  0.6209  0.1048 -0.4704
 4824SOL    HW118484   4.237   0.419   4.712 -2.4960 -0.0116 -1.2794
 4824SOL    HW218485   4.278   0.281   4.758  1.9789  1.3093 -1.1291
 4824SOL     MW18486   4.232   0.354   4.770  0.3958  0.2441 -0.6585
 4825SOL     OW18487   4.691   1.142   5.773 -0.0877  0.7171  0.1172
 4825SOL    HW118488   4.638   1.180   5.703  1.8349  2.4886 -0.4012
 4825SOL    HW218489   4.638   1.068   5.805 -2.1746  1.5016 -1.3949
 4825SOL     MW18490   4.677   1.137   5.768 -0.1087  1.0444 -0.1426
 4826SOL     OW18491   2.799   3.875   3.759  0.4980 -0.3934 -0.0667
 4826SOL    HW118492   2.759   3.951   3.802  0.1590 -0.3943 -0.3904
 4826SOL    HW218493   2.740   3.853   3.688 -0.3992 -2.1472  1.1978
 4826SOL     MW18494   2.787   3.882   3.756  0.3397 -0.6180  0.0536
 4827SOL     OW18495   0.234   4.478   1.801 -0.4029 -0.0060 -0.2037
 4827SOL    HW118496   0.199   4.393   1.773  1.6757 -0.8137 -0.3928
 4827SOL    HW218497   0.199   4.489   1.889  1.9194 -2.6326  1.1402
 4827SOL     MW18498   0.225   4.468   1.809  0.1605 -0.4458 -0.0559
 4828SOL     OW18499   0.551   0.137   0.083  0.7939  0.2770 -0.2586
 4828SOL    HW118500   0.522   0.051   0.052 -0.7548 -0.2652  2.4871
 4828SOL    HW218501   0.471   0.190   0.081  0.5601  0.1503  2.8289
 4828SOL     MW18502   0.537   0.132   0.079  0.5658  0.1914  0.4881
 4829SOL     OW18503   0.808   5.874   5.252 -0.8572  0.1074 -0.5166
 4829SOL    HW118504   0.838   5.784   5.265 -2.0148 -0.1658  0.3135
 4829SOL    HW218505   0.721   5.877   5.291  0.4808  2.4225  2.5195
 4829SOL     MW18506   0.801   5.863   5.259 -0.8340  0.3691 -0.0219
 4830SOL     OW18507   3.891   2.619   2.700 -0.3166  0.2587 -0.0311
 4830SOL    HW118508   3.804   2.605   2.738 -0.0891  0.8428  0.7216
 4830SOL    HW218509   3.945   2.549   2.736  0.0263  1.1174  1.1535
 4830SOL     MW18510   3.887   2.608   2.709 -0.2434  0.4432  0.2170
 4831SOL     OW18511   1.465   5.874   3.214 -0.2748  0.2179  0.1030
 4831SOL    HW118512   1.385   5.825   3.233 -0.6373  0.6337 -0.3461
 4831SOL    HW218513   1.436   5.946   3.158 -0.1346  2.2908  2.6130
 4831SOL     MW18514   1.451   5.877   3.209 -0.3033  0.5369  0.3669
 4832SOL     OW18515   2.217   0.398   1.058 -0.0479 -0.1586 -0.6349
 4832SOL    HW118516   2.150   0.372   0.995  0.7125 -0.9279 -1.1434
 4832SOL    HW218517   2.261   0.317   1.082 -1.1993 -0.0463  1.9372
 4832SOL     MW18518   2.214   0.385   1.053 -0.0980 -0.2427 -0.3707
 4833SOL     OW18519   3.818   0.442   3.470  0.4287 -0.4007  0.5898
 4833SOL    HW118520   3.798   0.518   3.416  1.8383  0.4888  1.2810
 4833SOL    HW218521   3.840   0.373   3.408  0.4022  0.1194 -0.0036
 4833SOL     MW18522   3.818   0.443   3.455  0.6056 -0.2203  0.6020
 4834SOL     OW18523   5.178   4.692   1.054  0.1577  0.5662  0.1356
 4834SOL    HW118524   5.267   4.711   1.084 -0.0550  1.1180  0.4372
 4834SOL    HW218525   5.166   4.598   1.069  0.4081  0.6439  0.8555
 4834SOL     MW18526   5.188   4.683   1.060  0.1626  0.6466  0.2663
 4835SOL     OW18527   0.200   4.973   0.664 -0.1303  0.1055  0.2857
 4835SOL    HW118528   0.204   5.035   0.737  1.5475 -0.2586  0.5258
 4835SOL    HW218529   0.259   5.010   0.598 -0.4314 -0.3692 -0.2500
 4835SOL     MW18530   0.208   4.986   0.665  0.0460 -0.0024  0.2478
 4836SOL     OW18531   3.353   0.549   0.391  0.8636 -0.6515  0.1568
 4836SOL    HW118532   3.362   0.505   0.475  0.0401 -0.7617  0.1930
 4836SOL    HW218533   3.280   0.504   0.348  0.3965  0.2834 -0.0523
 4836SOL     MW18534   3.345   0.538   0.396  0.6983 -0.5459  0.1347
 4837SOL     OW18535   1.384   1.488   0.390 -0.6339 -0.2426 -0.3449
 4837SOL    HW118536   1.324   1.476   0.315  0.7000  0.7859 -1.5994
 4837SOL    HW218537   1.468   1.509   0.350 -0.1738  1.5489  1.4812
 4837SOL     MW18538   1.387   1.489   0.375 -0.4042  0.1185 -0.2717
 4838SOL     OW18539   0.606   2.863   2.991 -0.0875 -0.2174  0.4732
 4838SOL    HW118540   0.691   2.892   2.959  0.5438 -1.2736  1.1889
 4838SOL    HW218541   0.545   2.887   2.920  1.1322 -1.5960 -1.0776
 4838SOL     MW18542   0.609   2.870   2.978  0.1495 -0.5291  0.3662
 4839SOL     OW18543   2.844   3.848   1.401 -0.1603  0.1632  0.0652
 4839SOL    HW118544   2.870   3.761   1.371  1.7097  0.4218  0.8660
 4839SOL    HW218545   2.898   3.909   1.350 -1.2985  0.8472 -0.3392
 4839SOL     MW18546   2.854   3.845   1.391 -0.0665  0.2840  0.1160
 4840SOL     OW18547   3.048   5.160   1.981  0.6385 -0.4714 -0.1164
 4840SOL    HW118548   2.953   5.166   1.972  0.9463  0.4645 -3.0545
 4840SOL    HW218549   3.077   5.249   1.998  1.1228 -0.5444 -0.5453
 4840SOL     MW18550   3.039   5.172   1.982  0.7398 -0.3610 -0.5474
 4841SOL     OW18551   3.784   0.919   0.861 -0.1345 -0.6024  0.0972
 4841SOL    HW118552   3.871   0.928   0.900 -1.1837 -0.4772  2.5240
 4841SOL    HW218553   3.738   0.999   0.888 -0.7570 -0.2689 -1.8725
 4841SOL     MW18554   3.789   0.931   0.870 -0.3486 -0.5436  0.1557
 4842SOL     OW18555   0.858   1.801   2.709 -0.1436  0.0101 -0.1312
 4842SOL    HW118556   0.940   1.846   2.732 -0.0911 -0.0030 -0.2920
 4842SOL    HW218557   0.875   1.763   2.623  0.1107 -1.0765  0.3984
 4842SOL     MW18558   0.871   1.802   2.701 -0.1044 -0.1308 -0.0839
 4843SOL     OW18559   1.289   4.491   2.860  0.3901  0.7349 -0.0735
 4843SOL    HW118560   1.205   4.448   2.848  0.2340  0.8281  0.6525
 4843SOL    HW218561   1.343   4.462   2.787 -0.9704  2.3802 -1.7684
 4843SOL     MW18562   1.285   4.482   2.849  0.1961  0.9570 -0.1974
 4844SOL     OW18563   2.284   0.070   2.997 -0.2788 -0.3438  0.1763
 4844SOL    HW118564   2.300   0.157   2.961  1.0655 -1.8288 -3.0485
 4844SOL    HW218565   2.363   0.049   3.047  0.4984 -0.6845 -1.1649
 4844SOL     MW18566   2.296   0.078   2.999 -0.0074 -0.5775 -0.4084
 4845SOL     OW18567   1.573   1.495   3.907 -0.3191  0.0707  0.0998
 4845SOL    HW118568   1.543   1.433   3.841  0.3771  0.0092 -0.1680
 4845SOL    HW218569   1.608   1.569   3.856 -1.9589  1.0934  0.4115
 4845SOL     MW18570   1.574   1.497   3.892 -0.4399  0.1937  0.1054
 4846SOL     OW18571   1.120   1.299   0.420  0.6966  0.1486  0.3417
 4846SOL    HW118572   1.188   1.274   0.357  1.2633  1.7832  0.2805
 4846SOL    HW218573   1.168   1.334   0.495 -0.0409  0.4039  0.7005
 4846SOL     MW18574   1.135   1.301   0.421  0.6747  0.3906  0.3798
 4847SOL     OW18575   0.241   3.946   0.639 -0.6000 -0.4973  0.0316
 4847SOL    HW118576   0.298   4.008   0.593 -2.3272  2.0099  1.2036
 4847SOL    HW218577   0.170   3.928   0.577 -1.3668  0.5873  0.5830
 4847SOL     MW18578   0.239   3.952   0.625 -0.9193 -0.0377  0.2522
 4848SOL     OW18579   5.257   2.968   0.502 -0.6345 -0.5697  0.4384
 4848SOL    HW118580   5.262   2.873   0.503  0.2054 -0.5289  2.3039
 4848SOL    HW218581   5.213   2.991   0.584 -2.1283  0.6025 -0.6448
 4848SOL     MW18582   5.252   2.959   0.513 -0.7181 -0.4146  0.5385
 4849SOL     OW18583   0.724   1.460   0.320 -0.9803 -0.0009 -0.1729
 4849SOL    HW118584   0.754   1.520   0.252 -0.9497 -0.6608 -0.7357
 4849SOL    HW218585   0.754   1.501   0.402 -0.5701  0.5216 -0.5790
 4849SOL     MW18586   0.732   1.473   0.322 -0.9239 -0.0185 -0.2970
 4850SOL     OW18587   0.301   2.423   1.604 -0.0440  0.4671  0.3032
 4850SOL    HW118588   0.334   2.335   1.587  0.0576  0.5194  0.2236
 4850SOL    HW218589   0.290   2.427   1.699 -2.0217 -0.3078  0.1076
 4850SOL     MW18590   0.304   2.413   1.614 -0.2842  0.3746  0.2681
 4851SOL     OW18591   2.616   5.123   3.533  0.2252  0.0400  0.1617
 4851SOL    HW118592   2.623   5.063   3.459 -2.9611 -0.0367 -0.1499
 4851SOL    HW218593   2.676   5.087   3.598  1.8709 -0.7974 -1.7595
 4851SOL     MW18594   2.624   5.111   3.532  0.0279 -0.0777 -0.1242
 4852SOL     OW18595   4.262   1.459   1.255  0.1831 -0.1310 -0.7849
 4852SOL    HW118596   4.307   1.385   1.215  1.0814  1.1360 -2.2025
 4852SOL    HW218597   4.219   1.503   1.181 -3.8088 -1.5149  0.5395
 4852SOL     MW18598   4.262   1.455   1.240 -0.2131 -0.1460 -0.7968
 4853SOL     OW18599   0.927   5.987   1.668  0.4353 -0.5466  0.1522
 4853SOL    HW118600   0.856   6.000   1.605  0.2640 -0.6867  0.3151
 4853SOL    HW218601   0.882   5.960   1.749  0.6108  0.1202  0.4772
 4853SOL     MW18602   0.912   5.985   1.670  0.4359 -0.4792  0.2147
 4854SOL     OW18603   0.663   2.624   5.561 -0.2428 -0.3582  0.0445
 4854SOL    HW118604   0.644   2.545   5.611  0.8433 -0.8459 -0.2975
 4854SOL    HW218605   0.757   2.621   5.545 -0.3604  0.4595 -0.8947
 4854SOL     MW18606   0.673   2.614   5.565 -0.1189 -0.3159 -0.1197
 4855SOL     OW18607   5.068   2.467   4.149  0.4417  0.3211  0.5588
 4855SOL    HW118608   5.082   2.534   4.215  0.6164  3.2006 -2.2517
 4855SOL    HW218609   5.151   2.421   4.143  1.2019  1.6403  0.6759
 4855SOL     MW18610   5.080   2.470   4.156  0.5612  0.8585  0.2141
 4856SOL     OW18611   2.331   3.196   1.662  0.1152  0.0970  0.0032
 4856SOL    HW118612   2.336   3.183   1.568 -0.1172  0.5866 -0.0790
 4856SOL    HW218613   2.275   3.273   1.673  0.9182  0.6134  0.5066
 4856SOL     MW18614   2.324   3.204   1.652  0.1884  0.2258  0.0572
 4857SOL     OW18615   1.182   3.667   4.737 -0.7393  0.0119 -0.3566
 4857SOL    HW118616   1.167   3.735   4.802 -0.6460 -0.5405  0.2538
 4857SOL    HW218617   1.146   3.702   4.656  1.0592  1.5691 -0.5014
 4857SOL     MW18618   1.175   3.680   4.735 -0.4972  0.1404 -0.2971
 4858SOL     OW18619   0.357   0.988   5.168  0.0288  0.5504  0.2845
 4858SOL    HW118620   0.315   1.027   5.091  0.6082  1.4792  0.4323
 4858SOL    HW218621   0.449   1.017   5.162  0.2345  0.0304  0.9335
 4858SOL     MW18622   0.364   0.997   5.157  0.1293  0.6028  0.3858
 4859SOL     OW18623   4.053   0.356   5.452  0.9894  0.1855  0.2463
 4859SOL    HW118624   4.060   0.389   5.362 -1.5529 -2.9878 -1.2362
 4859SOL    HW218625   4.122   0.290   5.459  0.9246  0.1395  0.4612
 4859SOL     MW18626   4.063   0.352   5.441  0.6557 -0.2266  0.0839
 4860SOL     OW18627   2.122   0.568   4.087 -0.7062  0.5661  0.1139
 4860SOL    HW118628   2.118   0.577   4.182  1.2615 -0.4166  0.3180
 4860SOL    HW218629   2.062   0.497   4.067  0.0645 -0.2909  0.8086
 4860SOL     MW18630   2.114   0.560   4.097 -0.3555  0.3307  0.2284
 4861SOL     OW18631   2.615   5.923   1.068  0.3776 -0.2226 -0.1695
 4861SOL    HW118632   2.697   5.962   1.038  0.0577 -0.7445 -1.7511
 4861SOL    HW218633   2.592   5.860   1.000 -0.7750 -0.8698  0.8017
 4861SOL     MW18634   2.623   5.920   1.055  0.1888 -0.3715 -0.2478
 4862SOL     OW18635   2.083   0.796   3.023  0.2859  0.0884  0.4471
 4862SOL    HW118636   2.163   0.846   3.005 -0.2181  0.9117  0.4748
 4862SOL    HW218637   2.055   0.765   2.937  0.3046  0.2923  0.3685
 4862SOL     MW18638   2.090   0.798   3.009  0.2239  0.2199  0.4406
 4863SOL     OW18639   3.802   4.407   0.239  0.3304  0.0517 -0.4809
 4863SOL    HW118640   3.850   4.369   0.166  2.2891 -1.8778  1.7372
 4863SOL    HW218641   3.847   4.489   0.259 -0.3466  0.6912 -1.5657
 4863SOL     MW18642   3.814   4.413   0.232  0.4947 -0.1135 -0.3358
 4864SOL     OW18643   5.887   5.227   1.426 -0.1908  0.2912 -0.1262
 4864SOL    HW118644   5.828   5.271   1.488 -0.6245 -2.5319  1.5166
 4864SOL    HW218645   5.964   5.204   1.477  0.0720 -0.7840 -0.9879
 4864SOL     MW18646   5.889   5.230   1.440 -0.2131 -0.2084 -0.0261
 4865SOL     OW18647   0.080   1.563   1.298 -0.5141 -0.1801 -0.0049
 4865SOL    HW118648   0.065   1.497   1.365  2.1322  0.1398  0.9616
 4865SOL    HW218649   0.056   1.520   1.216 -2.3011 -1.0880  0.9598
 4865SOL     MW18650   0.075   1.549   1.296 -0.4041 -0.2553  0.2424
 4866SOL     OW18651   5.752   1.632   1.843 -0.0443  0.5980 -0.0073
 4866SOL    HW118652   5.719   1.580   1.769  0.5107 -0.2034  0.3038
 4866SOL    HW218653   5.715   1.720   1.829  1.0125  0.7630 -1.8789
 4866SOL     MW18654   5.743   1.637   1.832  0.1626  0.5167 -0.2071
 4867SOL     OW18655   5.807   0.249   1.985  0.9925 -0.3409  0.0048
 4867SOL    HW118656   5.733   0.204   1.944  0.8631 -1.4029  1.3748
 4867SOL    HW218657   5.786   0.342   1.978  0.9637 -0.4806 -2.2914
 4867SOL     MW18658   5.795   0.255   1.978  0.9723 -0.4947 -0.1138
 4868SOL     OW18659   4.929   2.779   2.240  0.0929  0.4216 -0.6715
 4868SOL    HW118660   4.980   2.825   2.174  0.6005  1.9683  0.7830
 4868SOL    HW218661   4.991   2.721   2.284  0.1035  0.5986 -0.4524
 4868SOL     MW18662   4.943   2.777   2.237  0.1588  0.6423 -0.4573
 4869SOL     OW18663   5.803   2.919   3.696  0.2272  0.3381 -0.5399
 4869SOL    HW118664   5.761   2.998   3.731 -1.8983 -1.1600  0.3572
 4869SOL    HW218665   5.786   2.923   3.601  0.5719  1.2022 -0.5729
 4869SOL     MW18666   5.795   2.930   3.688 -0.0005  0.2570 -0.4292
 4870SOL     OW18667   3.814   0.419   1.081 -0.0190 -0.4053  0.3229
 4870SOL    HW118668   3.760   0.344   1.108 -0.7382  0.4538  1.3493
 4870SOL    HW218669   3.803   0.482   1.152  1.4324  0.2496 -0.0252
 4870SOL     MW18670   3.805   0.417   1.094  0.0749 -0.2114  0.4097
 4871SOL     OW18671   0.668   5.107   3.212  0.2573 -0.3893 -0.4874
 4871SOL    HW118672   0.659   5.157   3.131  0.0041 -0.4702 -0.5109
 4871SOL    HW218673   0.721   5.162   3.269 -1.2679  0.5659  0.0376
 4871SOL     MW18674   0.673   5.120   3.209  0.0296 -0.2770 -0.4234
 4872SOL     OW18675   0.175   0.329   1.908  0.6289  0.3255  0.3771
 4872SOL    HW118676   0.171   0.415   1.951  0.2413  1.3002 -1.5386
 4872SOL    HW218677   0.136   0.344   1.822  1.7828 -1.4864 -0.4801
 4872SOL     MW18678   0.169   0.342   1.903  0.7270  0.2184  0.0222
 4873SOL     OW18679   5.027   0.352   2.084  0.3758 -0.7996  0.3713
 4873SOL    HW118680   5.036   0.261   2.056  0.2793 -1.4713  2.4560
 4873SOL    HW218681   5.111   0.375   2.123  0.2572 -0.1267  0.2453
 4873SOL     MW18682   5.039   0.344   2.086  0.3481 -0.7995  0.6223
 4874SOL     OW18683   0.745   4.468   0.330  0.0366  0.4118  0.1775
 4874SOL    HW118684   0.744   4.539   0.395  1.6647  0.6753 -0.0475
 4874SOL    HW218685   0.724   4.390   0.381 -2.1489  1.0872  0.3562
 4874SOL     MW18686   0.742   4.467   0.345 -0.0347  0.5322  0.1715
 4875SOL     OW18687   3.415   4.400   2.816  0.0831 -0.3957  0.4082
 4875SOL    HW118688   3.425   4.328   2.878  1.0606 -1.4669 -0.9539
 4875SOL    HW218689   3.486   4.387   2.753 -1.9620 -0.3965 -1.9552
 4875SOL     MW18690   3.425   4.389   2.816 -0.0536 -0.5336 -0.0687
 4876SOL     OW18691   3.125   0.780   2.812 -0.3393 -0.1101  0.3031
 4876SOL    HW118692   3.174   0.851   2.853 -1.4341  0.0177  1.4363
 4876SOL    HW218693   3.072   0.744   2.883  0.0870 -1.9741 -0.2900
 4876SOL     MW18694   3.124   0.784   2.827 -0.4249 -0.3324  0.3726
 4877SOL     OW18695   0.884   0.416   2.459  0.5022  0.7569 -0.2254
 4877SOL    HW118696   0.861   0.327   2.432  1.0331  0.2570  0.9613
 4877SOL    HW218697   0.807   0.468   2.435  0.2602  0.0211 -1.0929
 4877SOL     MW18698   0.871   0.411   2.452  0.5392  0.5987 -0.1848
 4878SOL     OW18699   4.122   3.252   2.926 -0.0141  0.1267  0.2571
 4878SOL    HW118700   4.088   3.173   2.883  1.4472 -0.5824  0.3783
 4878SOL    HW218701   4.076   3.255   3.010  0.7348 -1.2205  0.7275
 4878SOL     MW18702   4.112   3.242   2.931  0.2689 -0.1366  0.3328
 4879SOL     OW18703   5.186   3.313   1.277  0.6625 -0.5695 -0.2215
 4879SOL    HW118704   5.232   3.393   1.253  1.3701 -0.2649  2.0264
 4879SOL    HW218705   5.096   3.342   1.294  1.0146 -0.1737  0.9907
 4879SOL     MW18706   5.180   3.327   1.276  0.7982 -0.4799  0.2215
 4880SOL     OW18707   3.699   2.312   4.505 -0.2242  0.1470  0.4489
 4880SOL    HW118708   3.668   2.391   4.461  2.9013  1.2426  0.0907
 4880SOL    HW218709   3.721   2.341   4.593  0.2850 -0.4744  0.5289
 4880SOL     MW18710   3.698   2.326   4.510  0.2413  0.2077  0.4129
 4881SOL     OW18711   0.030   2.701   1.751 -0.5194  0.0579 -0.2568
 4881SOL    HW118712   0.099   2.653   1.797 -0.6936 -1.8422 -1.9163
 4881SOL    HW218713  -0.052   2.671   1.792 -0.5253  0.4571  0.0345
 4881SOL     MW18714   0.028   2.691   1.762 -0.5425 -0.1342 -0.4319
 4882SOL     OW18715   2.611   1.775   4.882  0.4930 -0.2083  0.5283
 4882SOL    HW118716   2.571   1.848   4.834  1.0337  0.8384  1.6421
 4882SOL    HW218717   2.538   1.728   4.921  0.0090 -1.3203 -1.6300
 4882SOL     MW18718   2.597   1.778   4.881  0.5002 -0.2166  0.3943
 4883SOL     OW18719   4.828   2.395   0.236 -0.5979  0.1164 -0.0596
 4883SOL    HW118720   4.883   2.424   0.310 -0.3473  0.1305 -0.2492
 4883SOL    HW218721   4.881   2.329   0.191  0.1025  1.5413 -1.3995
 4883SOL     MW18722   4.842   2.391   0.240 -0.4764  0.3004 -0.2554
 4884SOL     OW18723   0.116   1.048   1.928  0.0017  0.2315  0.6961
 4884SOL    HW118724   0.183   1.084   1.869  0.3351  0.9043  1.4838
 4884SOL    HW218725   0.049   1.013   1.869  0.2386  1.0788 -0.0894
 4884SOL     MW18726   0.116   1.048   1.913  0.0747  0.4259  0.6964
 4885SOL     OW18727   2.428   2.120   4.094 -0.3975  0.3538 -0.5796
 4885SOL    HW118728   2.425   2.152   4.004  1.6248 -1.0185 -1.1578
 4885SOL    HW218729   2.436   2.025   4.086 -2.2827  0.0164  1.0854
 4885SOL     MW18730   2.428   2.112   4.082 -0.3798  0.1349 -0.4406
 4886SOL     OW18731   2.828   3.902   2.850  0.6548 -0.3247  0.2560
 4886SOL    HW118732   2.918   3.934   2.842  0.3102  0.6038 -0.0595
 4886SOL    HW218733   2.775   3.974   2.815 -0.1884 -0.9762  0.1976
 4886SOL     MW18734   2.833   3.916   2.845  0.5026 -0.2892  0.2079
 4887SOL     OW18735   5.667   1.782   4.810  0.2136  0.4899 -0.1556
 4887SOL    HW118736   5.664   1.693   4.776  0.6512 -0.0595  1.1881
 4887SOL    HW218737   5.755   1.813   4.790  0.4246  0.2172  0.3322
 4887SOL     MW18738   5.678   1.775   4.803  0.2966  0.3847  0.0792
 4888SOL     OW18739   2.001   3.550   2.000  0.4637  0.1278 -0.7013
 4888SOL    HW118740   1.999   3.533   2.095  0.0993 -0.3186 -0.7880
 4888SOL    HW218741   1.922   3.507   1.967  0.9416 -0.2861 -1.3035
 4888SOL     MW18742   1.991   3.542   2.008  0.4781  0.0176 -0.7896
 4889SOL     OW18743   5.135   5.082   4.594 -0.3756  0.0667 -0.1268
 4889SOL    HW118744   5.170   5.165   4.561  0.0182 -0.1878 -0.3427
 4889SOL    HW218745   5.181   5.015   4.544  1.1229 -0.3689  1.7802
 4889SOL     MW18746   5.145   5.084   4.583 -0.1340 -0.0219  0.0896
 4890SOL     OW18747   0.021   1.233   3.406  0.1048 -0.2309 -0.0027
 4890SOL    HW118748   0.016   1.138   3.398  0.0842 -0.5193  3.0267
 4890SOL    HW218749   0.098   1.258   3.354  0.0792 -1.8671 -0.8411
 4890SOL     MW18750   0.030   1.224   3.398  0.0989 -0.4773  0.2778
 4891SOL     OW18751   5.906   2.462   0.159  0.3687 -0.6308  0.5590
 4891SOL    HW118752   5.907   2.416   0.242  0.4526 -2.6879 -0.5366
 4891SOL    HW218753   5.949   2.401   0.098  1.3462  1.3160 -0.7300
 4891SOL     MW18754   5.912   2.448   0.161  0.5050 -0.6447  0.2537
 4892SOL     OW18755   0.847   4.393   5.818  0.0825  0.4827 -0.3211
 4892SOL    HW118756   0.832   4.324   5.883  0.1586  0.3606 -0.4318
 4892SOL    HW218757   0.923   4.362   5.768  0.8035  1.1704  0.3369
 4892SOL     MW18758   0.855   4.380   5.820  0.1845  0.5555 -0.2510
 4893SOL     OW18759   4.553   5.712   0.624 -0.0628 -0.0923  0.1304
 4893SOL    HW118760   4.508   5.774   0.681 -0.6320  2.4311 -2.9336
 4893SOL    HW218761   4.575   5.763   0.546  5.6356 -1.9710  0.3140
 4893SOL     MW18762   4.550   5.726   0.621  0.5937 -0.0100 -0.2384
 4894SOL     OW18763   3.029   0.553   1.095  0.2951 -0.0181 -0.4138
 4894SOL    HW118764   3.110   0.586   1.056  1.3349 -1.2725  0.6158
 4894SOL    HW218765   3.036   0.575   1.188 -0.2928 -0.6041 -0.2224
 4894SOL     MW18766   3.040   0.560   1.102  0.3526 -0.2537 -0.2576
 4895SOL     OW18767   2.447   3.425   0.515 -0.6458 -0.0477 -0.1875
 4895SOL    HW118768   2.503   3.410   0.592 -2.4671 -1.5501  0.8771
 4895SOL    HW218769   2.447   3.520   0.505  0.8779  0.0773  0.7106
 4895SOL     MW18770   2.454   3.435   0.524 -0.6838 -0.2239  0.0638
 4896SOL     OW18771   0.549   3.019   3.404 -0.0969 -0.6026  0.1847
 4896SOL    HW118772   0.561   3.107   3.370  0.0151 -0.4567  0.6035
 4896SOL    HW218773   0.479   3.026   3.468 -2.3683 -1.4281 -2.1091
 4896SOL     MW18774   0.542   3.031   3.407 -0.3734 -0.6895 -0.0551
 4897SOL     OW18775   1.345   3.828   1.456  0.1564  0.0427  0.1403
 4897SOL    HW118776   1.293   3.897   1.414  0.7005  0.8982  0.8478
 4897SOL    HW218777   1.286   3.753   1.460  0.1251 -0.0966 -2.2255
 4897SOL     MW18778   1.331   3.827   1.451  0.2220  0.1342 -0.0720
 4898SOL     OW18779   2.929   5.097   2.992  0.0791 -0.5462  0.0905
 4898SOL    HW118780   2.859   5.130   3.049 -0.4143  1.4080 -1.5720
 4898SOL    HW218781   3.009   5.137   3.026 -0.5714  2.9049 -2.1851
 4898SOL     MW18782   2.930   5.106   3.004 -0.0672  0.1454 -0.4137
 4899SOL     OW18783   3.755   2.564   0.227 -0.0464 -0.0395 -0.5497
 4899SOL    HW118784   3.758   2.585   0.134 -1.1368  1.5170 -0.2441
 4899SOL    HW218785   3.664   2.576   0.252 -0.0007 -1.6185  0.4738
 4899SOL     MW18786   3.744   2.568   0.218 -0.1805 -0.0424 -0.3796
 4900SOL     OW18787   1.042   1.828   2.913 -0.2823  0.0705 -0.5080
 4900SOL    HW118788   1.125   1.821   2.961 -0.5329 -0.9036 -0.2181
 4900SOL    HW218789   0.995   1.898   2.959  0.4992  0.8530 -0.8702
 4900SOL     MW18790   1.047   1.836   2.925 -0.2143  0.0460 -0.5174
 4901SOL     OW18791   5.240   5.634   4.182 -0.0547  0.5792  0.3413
 4901SOL    HW118792   5.153   5.657   4.147  0.9112  1.5020 -1.5473
 4901SOL    HW218793   5.263   5.553   4.136  0.2784  0.5951  0.4823
 4901SOL     MW18794   5.231   5.627   4.171  0.1111  0.6990  0.1178
 4902SOL     OW18795   2.567   4.828   2.648 -0.3686  0.3319 -0.5059
 4902SOL    HW118796   2.504   4.759   2.671 -0.2378  0.0499 -0.9964
 4902SOL    HW218797   2.652   4.784   2.647 -0.3104  0.4533 -1.0300
 4902SOL     MW18798   2.569   4.813   2.651 -0.3445  0.3114 -0.6359
 4903SOL     OW18799   0.969   2.605   2.438 -0.0902  0.2653  0.1765
 4903SOL    HW118800   0.885   2.603   2.392  0.9647  1.3759 -1.8558
 4903SOL    HW218801   0.952   2.658   2.516 -1.5654 -0.5141  0.4071
 4903SOL     MW18802   0.956   2.612   2.443 -0.1440  0.3078 -0.0539
 4904SOL     OW18803   3.624   0.170   0.693 -0.2759 -0.2491 -0.7951
 4904SOL    HW118804   3.646   0.238   0.629  1.1641 -0.9132 -1.0339
 4904SOL    HW218805   3.629   0.088   0.644  0.5691 -0.7371  0.0912
 4904SOL     MW18806   3.628   0.168   0.679  0.0167 -0.3965 -0.7122
 4905SOL     OW18807   3.788   1.853   3.195 -0.1864 -0.1056  0.8562
 4905SOL    HW118808   3.712   1.891   3.239 -1.1869 -1.2445  0.1837
 4905SOL    HW218809   3.776   1.876   3.103 -0.8195 -1.9910  0.4308
 4905SOL     MW18810   3.776   1.861   3.189 -0.3955 -0.4928  0.7157
 4906SOL     OW18811   4.685   4.273   2.551  0.8441 -0.2527 -0.1417
 4906SOL    HW118812   4.631   4.270   2.472 -0.6887 -0.9582  0.9018
 4906SOL    HW218813   4.669   4.360   2.588 -0.7882 -0.9950  0.9627
 4906SOL     MW18814   4.676   4.284   2.546  0.4392 -0.4387  0.1330
 4907SOL     OW18815   1.595   3.825   1.571  0.2303 -0.6767  0.4673
 4907SOL    HW118816   1.502   3.834   1.548  0.8325  1.0258 -1.4572
 4907SOL    HW218817   1.598   3.751   1.631 -2.0929 -2.0814 -1.0992
 4907SOL     MW18818   1.583   3.817   1.576  0.0100 -0.6385  0.0205
 4908SOL     OW18819   5.345   0.361   5.354 -0.7901 -0.0900 -0.6700
 4908SOL    HW118820   5.341   0.457   5.353  1.5364  0.0545  0.8726
 4908SOL    HW218821   5.253   0.333   5.346 -1.3374  2.2058 -3.1766
 4908SOL     MW18822   5.332   0.370   5.353 -0.5622  0.2224 -0.7935
 4909SOL     OW18823   3.135   5.784   1.316 -0.3808 -0.1173  0.1139
 4909SOL    HW118824   3.102   5.858   1.265 -1.3810 -0.2696  0.5242
 4909SOL    HW218825   3.067   5.768   1.381  1.0731  0.3303  1.7661
 4909SOL     MW18826   3.122   5.791   1.318 -0.3226 -0.0796  0.3779
 4910SOL     OW18827   4.707   2.219   0.716 -0.3878  0.3683  0.3701
 4910SOL    HW118828   4.684   2.127   0.710  0.3574  0.0900  1.6395
 4910SOL    HW218829   4.624   2.265   0.705 -0.4699 -0.3455 -2.4568
 4910SOL     MW18830   4.694   2.213   0.714 -0.3028  0.2410  0.1708
 4911SOL     OW18831   4.647   2.967   1.211 -0.0696  0.1443  0.5264
 4911SOL    HW118832   4.720   3.025   1.235  1.3624 -1.7522  0.8320
 4911SOL    HW218833   4.637   2.980   1.116  3.0458 -2.1612 -0.2208
 4911SOL     MW18834   4.655   2.976   1.202  0.5131 -0.3934  0.4699
 4912SOL     OW18835   2.761   2.227   1.529  0.6531 -0.1367  0.4273
 4912SOL    HW118836   2.802   2.228   1.443  2.8468  0.3851  1.4269
 4912SOL    HW218837   2.674   2.263   1.515  1.0442  0.0734 -1.5521
 4912SOL     MW18838   2.755   2.232   1.516  0.9842 -0.0432  0.3021
 4913SOL     OW18839   0.411   5.684   1.109 -0.2469  0.1309  0.7190
 4913SOL    HW118840   0.358   5.652   1.183  0.0895 -0.6417  0.6309
 4913SOL    HW218841   0.496   5.703   1.148  0.1059 -0.8276  0.4247
 4913SOL     MW18842   0.415   5.683   1.124 -0.1587 -0.0906  0.6701
 4914SOL     OW18843   3.357   0.124   2.281 -0.7916  0.0430 -0.0731
 4914SOL    HW118844   3.388   0.182   2.351  0.7258 -1.0058  0.1518
 4914SOL    HW218845   3.313   0.183   2.220 -1.5038  1.0758  1.3994
 4914SOL     MW18846   3.356   0.139   2.282 -0.6888  0.0409  0.1438
 4915SOL     OW18847   5.623   1.176   1.645 -0.6098  0.2129 -0.3461
 4915SOL    HW118848   5.619   1.096   1.697 -2.2494  0.4563 -0.0533
 4915SOL    HW218849   5.570   1.239   1.694  3.3095  2.5305  1.1390
 4915SOL     MW18850   5.615   1.174   1.658 -0.3181  0.5409 -0.1185
 4916SOL     OW18851   5.194   4.360   5.314  0.2034 -0.4392  0.8608
 4916SOL    HW118852   5.173   4.453   5.309 -2.7823 -1.1683 -0.7330
 4916SOL    HW218853   5.141   4.327   5.387  0.2019 -1.1864  0.5270
 4916SOL     MW18854   5.185   4.367   5.323 -0.1793 -0.6285  0.6142
 4917SOL     OW18855   1.111   3.462   0.013  0.2800 -0.0245 -0.5567
 4917SOL    HW118856   1.196   3.422  -0.000 -0.0812 -0.8241 -0.4948
 4917SOL    HW218857   1.087   3.440   0.103  0.3662  0.8922 -0.2968
 4917SOL     MW18858   1.119   3.454   0.023  0.2447 -0.0095 -0.5155
 4918SOL     OW18859   5.614   1.321   3.268  0.5147  0.3171  0.2123
 4918SOL    HW118860   5.541   1.271   3.232  1.2846 -1.0301  0.5276
 4918SOL    HW218861   5.692   1.280   3.233  1.1565  1.4062  0.3377
 4918SOL     MW18862   5.615   1.310   3.259  0.6952  0.2841  0.2687
 4919SOL     OW18863   5.605   0.509   0.479 -0.4289  0.1656 -0.4689
 4919SOL    HW118864   5.572   0.519   0.390  1.0487 -1.2930 -1.2135
 4919SOL    HW218865   5.664   0.584   0.491 -1.4141  0.9354 -0.3177
 4919SOL     MW18866   5.608   0.520   0.470 -0.3657  0.0774 -0.5449
 4920SOL     OW18867   1.934   5.808   3.822  0.2313  0.2204  0.4815
 4920SOL    HW118868   1.939   5.886   3.766  0.0682 -0.3237 -0.3026
 4920SOL    HW218869   1.847   5.773   3.805 -0.5010  1.0421  2.4304
 4920SOL     MW18870   1.924   5.813   3.812  0.1165  0.2556  0.6306
 4921SOL     OW18871   4.000   1.056   2.317 -0.1628  0.0620  0.7896
 4921SOL    HW118872   3.976   1.074   2.226  1.8945 -2.8274 -0.4088
 4921SOL    HW218873   4.056   1.129   2.342  0.5512  0.0732 -0.8067
 4921SOL     MW18874   4.004   1.067   2.308  0.1917 -0.3065  0.4318
 4922SOL     OW18875   0.508   3.990   5.305 -0.2279  0.2962 -0.5729
 4922SOL    HW118876   0.541   4.075   5.335 -1.0450  0.2775  0.4118
 4922SOL    HW218877   0.477   4.007   5.216 -0.0390  0.9392 -0.5214
 4922SOL     MW18878   0.508   4.003   5.298 -0.3083  0.3757 -0.4406
 4923SOL     OW18879   3.121   5.739   2.816  0.0271 -0.1081  0.0915
 4923SOL    HW118880   3.043   5.706   2.771 -0.3683 -1.4168  1.7162
 4923SOL    HW218881   3.142   5.672   2.880  1.2706  1.2048  1.0827
 4923SOL     MW18882   3.114   5.726   2.819  0.1359 -0.1073  0.4263
 4924SOL     OW18883   1.005   1.288   2.897 -0.3576 -0.7531  0.2537
 4924SOL    HW118884   1.031   1.292   2.805  0.5598 -1.1680  0.4893
 4924SOL    HW218885   0.999   1.194   2.916  0.7618 -0.6896  0.9707
 4924SOL     MW18886   1.008   1.277   2.888 -0.0969 -0.7980  0.3755
 4925SOL     OW18887   1.024   0.697   2.414 -0.6645  0.0669 -0.1807
 4925SOL    HW118888   0.929   0.703   2.429 -0.4927  1.5241  0.4137
 4925SOL    HW218889   1.044   0.605   2.426 -1.7440  0.0072  1.3821
 4925SOL     MW18890   1.014   0.686   2.417 -0.7808  0.2457  0.0956
 4926SOL     OW18891   1.322   0.779   3.004 -0.1172 -0.3744 -0.5252
 4926SOL    HW118892   1.348   0.842   3.071  1.5323 -0.1924 -1.3075
 4926SOL    HW218893   1.297   0.833   2.929  0.6483 -0.6243 -0.9654
 4926SOL     MW18894   1.322   0.794   3.003  0.1919 -0.3831 -0.6816
 4927SOL     OW18895   3.566   5.328   2.357  0.1001  0.7675  0.1989
 4927SOL    HW118896   3.585   5.313   2.265  1.4095  2.9417  0.0626
 4927SOL    HW218897   3.631   5.276   2.404  0.0809  0.4491 -0.1282
 4927SOL     MW18898   3.576   5.320   2.351  0.2651  1.0047  0.1392
 4928SOL     OW18899   0.277   5.432   4.922  0.2835  0.1073  0.2835
 4928SOL    HW118900   0.199   5.437   4.978  1.1723  0.6842  1.4757
 4928SOL    HW218901   0.282   5.339   4.898 -0.4204 -0.0502  0.7147
 4928SOL     MW18902   0.268   5.420   4.926  0.3071  0.1612  0.4916
 4929SOL     OW18903   2.331   3.390   4.592 -0.1704  0.1420 -0.5618
 4929SOL    HW118904   2.421   3.411   4.620  0.1052 -0.8871 -0.6468
 4929SOL    HW218905   2.275   3.440   4.651  0.4706  1.9177 -1.4231
 4929SOL     MW18906   2.336   3.399   4.603 -0.0529  0.2375 -0.6828
 4930SOL     OW18907   2.915   2.063   1.313 -0.3549 -0.3911  0.0275
 4930SOL    HW118908   2.954   2.032   1.395  0.7865 -1.3280 -0.8665
 4930SOL    HW218909   2.990   2.079   1.255 -1.1380  0.5898 -0.7249
 4930SOL     MW18910   2.930   2.061   1.316 -0.3088 -0.3855 -0.1833
 4931SOL     OW18911   5.616   2.312   4.756 -0.3622  0.2505  0.1032
 4931SOL    HW118912   5.549   2.260   4.711  0.3564  1.0770 -1.9908
 4931SOL    HW218913   5.696   2.293   4.708  0.4558  1.1100  1.1103
 4931SOL     MW18914   5.617   2.303   4.744 -0.1655  0.4663 -0.0353
 4932SOL     OW18915   1.350   4.021   4.440 -0.2832  0.0703  0.0556
 4932SOL    HW118916   1.352   4.117   4.441 -1.9303  0.1790 -2.3864
 4932SOL    HW218917   1.437   3.995   4.470  0.0680  2.3231  1.0761
 4932SOL     MW18918   1.361   4.030   4.444 -0.4491  0.3729 -0.1264
 4933SOL     OW18919   0.034   0.759   1.306  0.4250  0.2751  0.2411
 4933SOL    HW118920  -0.004   0.697   1.369  0.9093  0.5173  0.7782
 4933SOL    HW218921  -0.001   0.844   1.331  1.4925  0.5389  0.8979
 4933SOL     MW18922   0.025   0.762   1.317  0.6237  0.3398  0.3941
 4934SOL     OW18923   4.793   1.181   0.613  0.0426  0.2224 -0.1578
 4934SOL    HW118924   4.881   1.209   0.587  0.3199 -0.1209  0.4103
 4934SOL    HW218925   4.806   1.135   0.696 -0.7061  0.3889  0.0534
 4934SOL     MW18926   4.806   1.179   0.620 -0.0176  0.1997 -0.0580
 4935SOL     OW18927   3.596   3.123   1.086 -0.4982 -0.2430  0.7110
 4935SOL    HW118928   3.561   3.045   1.130 -0.2922 -0.3658  0.6544
 4935SOL    HW218929   3.519   3.165   1.048 -0.8587  0.4965  2.1887
 4935SOL     MW18930   3.582   3.118   1.087 -0.5178 -0.1640  0.8928
 4936SOL     OW18931   4.343   2.476   2.143  0.1302 -0.0814  0.5364
 4936SOL    HW118932   4.402   2.521   2.205  0.7669  0.4077 -0.4174
 4936SOL    HW218933   4.256   2.508   2.166  0.3598  0.0842  1.1997
 4936SOL     MW18934   4.340   2.486   2.154  0.2408  0.0026  0.4992
 4937SOL     OW18935   2.678   4.250   1.693 -0.4579  0.5106  0.5636
 4937SOL    HW118936   2.634   4.303   1.759 -2.7447  0.7077 -1.0851
 4937SOL    HW218937   2.616   4.181   1.672  0.4639  0.1365 -0.9836
 4937SOL     MW18938   2.665   4.248   1.699 -0.6325  0.4878  0.1545
 4938SOL     OW18939   4.554   1.458   0.275  0.2811 -0.2684 -0.2939
 4938SOL    HW118940   4.609   1.483   0.349  0.6217  0.2596 -0.7220
 4938SOL    HW218941   4.616   1.428   0.209  0.0108 -0.3056 -0.5302
 4938SOL     MW18942   4.569   1.457   0.276  0.2899 -0.2055 -0.3789
 4939SOL     OW18943   1.674   5.449   1.816 -0.1968  0.3291 -0.1856
 4939SOL    HW118944   1.760   5.472   1.851  0.6440 -0.1151 -1.9253
 4939SOL    HW218945   1.639   5.531   1.783  0.1746  0.2375 -0.8010
 4939SOL     MW18946   1.681   5.462   1.816 -0.0416  0.2608 -0.4872
 4940SOL     OW18947   2.658   4.149   0.453  0.3931  0.0659 -0.5495
 4940SOL    HW118948   2.606   4.229   0.441  0.9345  0.6785  1.0315
 4940SOL    HW218949   2.638   4.095   0.377  1.2170  2.3730 -2.4745
 4940SOL     MW18950   2.649   4.153   0.442  0.5679  0.4396 -0.5936
 4941SOL     OW18951   3.439   4.583   3.687  0.4364 -0.3045 -0.8338
 4941SOL    HW118952   3.442   4.589   3.783  3.4899 -0.5544 -0.8595
 4941SOL    HW218953   3.463   4.670   3.657  2.0031 -0.8930 -1.3360
 4941SOL     MW18954   3.443   4.595   3.696  1.0276 -0.4120 -0.9015
 4942SOL     OW18955   4.082   4.068   3.051 -0.0583 -0.3788  0.3866
 4942SOL    HW118956   4.105   4.125   3.125 -2.9164  1.7624 -0.2727
 4942SOL    HW218957   4.134   4.102   2.978 -1.1292  0.9199  0.1972
 4942SOL     MW18958   4.091   4.080   3.051 -0.5617  0.0615  0.2778
 4943SOL     OW18959   3.269   1.071   1.798  0.0426 -0.3424 -0.0597
 4943SOL    HW118960   3.306   1.102   1.715 -0.6317  1.5948  0.3302
 4943SOL    HW218961   3.344   1.065   1.857  0.5655 -1.9813 -0.8660
 4943SOL     MW18962   3.284   1.075   1.795  0.0231 -0.3042 -0.1131
 4944SOL     OW18963   1.223   4.117   2.807  0.3143  0.0630  0.5764
 4944SOL    HW118964   1.267   4.088   2.887  0.3476 -0.9968  0.1777
 4944SOL    HW218965   1.224   4.041   2.749  1.6640  1.2554 -1.0296
 4944SOL     MW18966   1.229   4.104   2.810  0.4914  0.0806  0.3195
 4945SOL     OW18967   1.912   5.183   4.452 -0.5265 -0.2607  0.5126
 4945SOL    HW118968   1.977   5.115   4.470  0.5311  0.2945 -1.0650
 4945SOL    HW218969   1.842   5.136   4.406  0.4403 -0.2413 -1.0495
 4945SOL     MW18970   1.911   5.168   4.448 -0.2674 -0.1869  0.1106
 4946SOL     OW18971   0.494   2.056   5.221  0.2816 -0.5990 -0.3107
 4946SOL    HW118972   0.572   2.047   5.275  1.0357  1.3772 -1.0192
 4946SOL    HW218973   0.431   1.995   5.259  2.0979 -2.0941  0.3754
 4946SOL     MW18974   0.496   2.047   5.233  0.6107 -0.5374 -0.3138
 4947SOL     OW18975   0.869   1.876   4.933  0.1439  0.6587  0.5170
 4947SOL    HW118976   0.792   1.895   4.986  0.0856 -1.9686  1.4499
 4947SOL    HW218977   0.940   1.923   4.977 -0.7130  2.2095  0.2752
 4947SOL     MW18978   0.868   1.884   4.946  0.0268  0.5208  0.6056
 4948SOL     OW18979   1.621   3.652   4.380  0.7919 -0.3895 -0.0538
 4948SOL    HW118980   1.591   3.611   4.461 -1.1287 -1.3848 -1.2333
 4948SOL    HW218981   1.583   3.599   4.310  1.2365  1.2935 -1.6230
 4948SOL     MW18982   1.612   3.640   4.382  0.6028 -0.3014 -0.4063
 4949SOL     OW18983   2.980   1.900   0.702 -0.3498  0.0445  0.1552
 4949SOL    HW118984   2.904   1.924   0.648 -0.7521 -0.1229  0.6369
 4949SOL    HW218985   2.956   1.928   0.791  0.3260  0.3609  0.2439
 4949SOL     MW18986   2.967   1.907   0.707 -0.3147  0.0637  0.2282
 4950SOL     OW18987   2.226   5.843   1.203  0.8011 -0.1646  0.0584
 4950SOL    HW118988   2.300   5.903   1.194 -0.6370  1.4239 -1.5573
 4950SOL    HW218989   2.264   5.762   1.237  3.4056  0.2966 -1.6834
 4950SOL     MW18990   2.240   5.841   1.206  0.9503  0.0978 -0.3713
 4951SOL     OW18991   3.659   2.421   5.160 -0.1512 -0.2403 -0.3302
 4951SOL    HW118992   3.675   2.392   5.250  1.4576 -3.3256 -1.5283
 4951SOL    HW218993   3.563   2.423   5.152 -0.3054 -0.3870  1.2753
 4951SOL     MW18994   3.649   2.418   5.171  0.0350 -0.6542 -0.2785
 4952SOL     OW18995   5.224   5.449   3.019  0.2900 -0.5216 -0.6735
 4952SOL    HW118996   5.305   5.449   3.070 -0.2003 -0.3740  0.1091
 4952SOL    HW218997   5.244   5.504   2.943  0.0205  1.9239  0.9768
 4952SOL     MW18998   5.237   5.456   3.016  0.1926 -0.1898 -0.3622
 4953SOL     OW18999   0.580   0.615   3.477 -0.1501  0.0156 -0.3629
 4953SOL    HW119000   0.550   0.676   3.409 -0.4486 -0.5936 -0.7798
 4953SOL    HW219001   0.626   0.671   3.539 -1.1027  0.7955 -0.3323
 4953SOL     MW19002   0.582   0.630   3.476 -0.3102  0.0374 -0.4127
 4954SOL     OW19003   5.518   1.303   2.503  0.1554  0.5033  0.0299
 4954SOL    HW119004   5.569   1.225   2.525  1.3136  1.5586  1.1039
 4954SOL    HW219005   5.551   1.371   2.561 -0.6500  1.8859 -1.1079
 4954SOL     MW19006   5.529   1.302   2.513  0.2007  0.8154  0.0217
 4955SOL     OW19007   1.865   3.774   4.281  0.5077 -0.2247  0.7275
 4955SOL    HW119008   1.788   3.733   4.319  0.4001 -2.7990 -2.1293
 4955SOL    HW219009   1.938   3.718   4.310  0.9344  0.3481  0.7618
 4955SOL     MW19010   1.865   3.762   4.290  0.5484 -0.4809  0.3657
 4956SOL     OW19011   4.089   1.534   1.691  0.6753  0.2094 -0.6375
 4956SOL    HW119012   4.111   1.627   1.695  1.1418  0.0816 -0.1592
 4956SOL    HW219013   4.003   1.532   1.648 -0.5084  1.0540  1.6058
 4956SOL     MW19014   4.081   1.546   1.686  0.5832  0.3011 -0.2892
 4957SOL     OW19015   3.898   5.259   1.983 -0.4380 -0.0534  0.3517
 4957SOL    HW119016   3.958   5.190   2.012 -1.4749 -2.2166 -2.3865
 4957SOL    HW219017   3.954   5.335   1.968  1.2440 -1.2648  0.3088
 4957SOL     MW19018   3.913   5.260   1.984 -0.3555 -0.4849 -0.0043
 4958SOL     OW19019   4.133   2.031   5.203  0.5035  0.1957 -0.0894
 4958SOL    HW119020   4.205   2.000   5.148 -0.1104 -1.2017 -0.1270
 4958SOL    HW219021   4.054   2.009   5.153 -0.0029  0.2971  0.6685
 4958SOL     MW19022   4.132   2.024   5.189  0.3600  0.0298  0.0029
 4959SOL     OW19023   5.245   0.304   1.714  0.0456 -0.1112 -0.3358
 4959SOL    HW119024   5.211   0.393   1.713 -1.5502 -0.7024 -0.5145
 4959SOL    HW219025   5.250   0.281   1.807 -0.4797 -0.1812 -0.3244
 4959SOL     MW19026   5.241   0.312   1.726 -0.2260 -0.1959 -0.3573
 4960SOL     OW19027   0.725   1.446   0.958  0.1591  0.2163 -0.2192
 4960SOL    HW119028   0.808   1.402   0.939  1.2576  2.4818 -0.8145
 4960SOL    HW219029   0.693   1.475   0.872 -1.8815 -1.6285 -0.1580
 4960SOL     MW19030   0.731   1.444   0.944  0.0385  0.2702 -0.2876
 4961SOL     OW19031   5.831   3.198   0.985 -0.4929 -0.1626 -0.2762
 4961SOL    HW119032   5.899   3.191   0.918  0.0436 -1.1443  0.3428
 4961SOL    HW219033   5.833   3.113   1.030 -2.9737 -0.6629 -1.0357
 4961SOL     MW19034   5.840   3.186   0.982 -0.7415 -0.3521 -0.2941
 4962SOL     OW19035   3.534   4.317   3.655  0.2811 -0.0528 -0.0986
 4962SOL    HW119036   3.492   4.402   3.642  2.0255  0.9046  0.3507
 4962SOL    HW219037   3.623   4.339   3.683  0.6269 -2.0357  0.3910
 4962SOL     MW19038   3.540   4.331   3.657  0.5486 -0.1841  0.0215
 4963SOL     OW19039   4.372   3.231   1.390  0.0124 -0.0742 -1.0400
 4963SOL    HW119040   4.430   3.252   1.317  0.3454  1.7774 -0.2842
 4963SOL    HW219041   4.362   3.314   1.437  0.1407 -1.3244  1.2546
 4963SOL     MW19042   4.378   3.244   1.387  0.0710  0.0029 -0.6496
 4964SOL     OW19043   0.863   4.169   1.193  0.2643  0.1567  0.1801
 4964SOL    HW119044   0.805   4.093   1.202  2.2462 -1.5521 -0.8426
 4964SOL    HW219045   0.826   4.219   1.121 -0.2487 -0.6260 -0.1127
 4964SOL     MW19046   0.851   4.166   1.185  0.4523 -0.1621  0.0117
 4965SOL     OW19047   3.835   0.655   2.254  0.0542 -0.8608  0.0966
 4965SOL    HW119048   3.916   0.627   2.297  1.0332  0.7577 -0.6232
 4965SOL    HW219049   3.848   0.633   2.162 -0.5968 -1.1712  0.0770
 4965SOL     MW19050   3.847   0.649   2.248  0.0963 -0.6934  0.0017
 4966SOL     OW19051   4.126   5.311   0.431 -0.1460  0.4564 -0.6950
 4966SOL    HW119052   4.129   5.222   0.394 -2.3048  0.6418 -1.3631
 4966SOL    HW219053   4.117   5.296   0.526  2.8673 -0.0021 -0.4092
 4966SOL     MW19054   4.126   5.297   0.439 -0.0367  0.4215 -0.7440
 4967SOL     OW19055   5.259   2.386   1.143 -0.4975 -0.4258 -0.3621
 4967SOL    HW119056   5.218   2.420   1.064  0.1523 -0.7198 -0.8270
 4967SOL    HW219057   5.196   2.321   1.176 -0.7502 -0.3320 -0.6565
 4967SOL     MW19058   5.246   2.382   1.137 -0.4463 -0.4513 -0.4592
 4968SOL     OW19059   4.648   5.490   1.570 -0.0600 -0.0443  0.1713
 4968SOL    HW119060   4.586   5.481   1.497  0.4438  0.3600 -0.3144
 4968SOL    HW219061   4.681   5.579   1.563 -2.9997  1.3802  3.3424
 4968SOL     MW19062   4.644   5.500   1.559 -0.3719  0.1893  0.5151
 4969SOL     OW19063   1.378   1.145   3.400  0.3226  0.4942 -0.4239
 4969SOL    HW119064   1.323   1.220   3.422  0.1744 -0.3843  2.4503
 4969SOL    HW219065   1.325   1.069   3.424  2.0820 -0.4010  0.6939
 4969SOL     MW19066   1.364   1.145   3.406  0.5289  0.2673  0.0870
 4970SOL     OW19067   3.828   3.800   0.331 -0.0520  0.3183 -0.2467
 4970SOL    HW119068   3.786   3.734   0.276 -0.1131 -0.3837  0.6412
 4970SOL    HW219069   3.758   3.863   0.349 -0.4150 -0.2179  0.2376
 4970SOL     MW19070   3.813   3.800   0.326 -0.1063  0.1597 -0.0710
 4971SOL     OW19071   3.700   4.272   1.408  0.4486 -0.0907 -0.4829
 4971SOL    HW119072   3.719   4.196   1.353 -0.8309  0.9814 -2.4820
 4971SOL    HW219073   3.751   4.343   1.369  0.2223  0.4876  0.2632
 4971SOL     MW19074   3.709   4.271   1.396  0.2558  0.1206 -0.6434
 4972SOL     OW19075   0.628   5.479   3.798 -0.1431 -0.0795 -0.4799
 4972SOL    HW119076   0.582   5.406   3.840 -0.4602  0.1092 -0.5009
 4972SOL    HW219077   0.646   5.448   3.709  1.1879 -0.7656  0.0195
 4972SOL     MW19078   0.624   5.466   3.792 -0.0133 -0.1435 -0.4187
 4973SOL     OW19079   0.658   4.841   5.721 -0.7768 -0.1285  0.2161
 4973SOL    HW119080   0.735   4.817   5.669  0.2911  0.4906  1.5029
 4973SOL    HW219081   0.693   4.865   5.807 -2.1013  2.8437 -0.0035
 4973SOL     MW19082   0.673   4.841   5.725 -0.8097  0.3309  0.3529
 4974SOL     OW19083   2.186   2.037   1.165 -0.6418 -0.1234  0.4019
 4974SOL    HW119084   2.106   1.998   1.199 -0.1869 -0.9427  0.5625
 4974SOL    HW219085   2.159   2.121   1.129 -1.7798 -0.9098 -0.6272
 4974SOL     MW19086   2.173   2.043   1.165 -0.7293 -0.3290  0.2906
 4975SOL     OW19087   5.150   1.712   4.938 -0.0668  0.2290  0.3774
 4975SOL    HW119088   5.154   1.677   5.028  1.5786  0.3273  0.3694
 4975SOL    HW219089   5.218   1.780   4.936  0.7975 -0.6515 -1.3047
 4975SOL     MW19090   5.159   1.716   4.950  0.2546  0.1287  0.1616
 4976SOL     OW19091   5.929   5.428   2.147  0.2060  0.2547 -0.3516
 4976SOL    HW119092   5.912   5.419   2.241 -0.4707 -2.0250 -0.6656
 4976SOL    HW219093   6.020   5.401   2.136  0.3747  0.8035 -0.3196
 4976SOL     MW19094   5.938   5.424   2.158  0.1407  0.0329 -0.3874
 4977SOL     OW19095   4.605   1.129   2.371  0.2332  0.0118 -0.1156
 4977SOL    HW119096   4.586   1.038   2.348  1.1116 -0.1002 -0.4235
 4977SOL    HW219097   4.624   1.171   2.287  1.9398 -0.0347  0.2334
 4977SOL     MW19098   4.605   1.123   2.357  0.5641 -0.0085 -0.1104
 4978SOL     OW19099   5.856   2.593   1.115 -0.1487 -0.3800 -0.1536
 4978SOL    HW119100   5.788   2.638   1.065  0.7399  0.5288 -0.5642
 4978SOL    HW219101   5.906   2.543   1.049 -0.0443 -0.5613  0.0611
 4978SOL     MW19102   5.854   2.592   1.100 -0.0210 -0.2868 -0.1786
 4979SOL     OW19103   1.190   2.063   2.792  0.0870  0.5069 -0.3832
 4979SOL    HW119104   1.238   1.982   2.772  0.0809 -0.2495  2.5041
 4979SOL    HW219105   1.251   2.133   2.766  1.5434 -0.4475  0.3510
 4979SOL     MW19106   1.204   2.062   2.786  0.2726  0.2880  0.0806
 4980SOL     OW19107   4.265   3.181   3.541 -0.8223 -0.1172 -0.7903
 4980SOL    HW119108   4.227   3.102   3.503 -0.6752  0.0384 -1.2575
 4980SOL    HW219109   4.193   3.220   3.591 -1.1441 -0.0825 -1.2755
 4980SOL     MW19110   4.251   3.176   3.543 -0.8450 -0.0927 -0.9122
 4981SOL     OW19111   1.049   4.318   5.644 -0.0009 -0.0512 -0.3333
 4981SOL    HW119112   1.105   4.282   5.713  0.1128 -0.4341 -0.6216
 4981SOL    HW219113   1.085   4.406   5.628  0.0359 -0.0006  0.0175
 4981SOL     MW19114   1.061   4.325   5.651  0.0182 -0.0939 -0.3252
 4982SOL     OW19115   1.876   3.217   1.424 -0.2168  0.1541 -0.5436
 4982SOL    HW119116   1.841   3.305   1.408 -0.7850  0.1710  0.7267
 4982SOL    HW219117   1.886   3.212   1.519  1.2644 -0.6115 -0.7343
 4982SOL     MW19118   1.872   3.228   1.434 -0.0998  0.0582 -0.4054
 4983SOL     OW19119   0.484   3.176   4.729 -0.1135  0.5722  0.1325
 4983SOL    HW119120   0.392   3.200   4.716  0.0884  0.9277 -0.6248
 4983SOL    HW219121   0.497   3.184   4.824 -0.4855  1.8768  0.0842
 4983SOL     MW19122   0.474   3.180   4.740 -0.1353  0.7849  0.0291
 4984SOL     OW19123   4.700   4.421   3.891 -0.2254  0.0513 -0.3916
 4984SOL    HW119124   4.668   4.405   3.802  1.7153  0.1480 -1.1448
 4984SOL    HW219125   4.629   4.467   3.935 -1.5158 -0.7108 -1.6565
 4984SOL     MW19126   4.687   4.425   3.885 -0.1421 -0.0339 -0.6499
 4985SOL     OW19127   2.089   2.469   0.475 -0.3270  0.3708  0.0919
 4985SOL    HW119128   2.005   2.423   0.477 -0.2059  0.1787  1.0459
 4985SOL    HW219129   2.133   2.436   0.397 -1.6479  1.3828 -1.0960
 4985SOL     MW19130   2.084   2.459   0.466 -0.4807  0.4761  0.0620
 4986SOL     OW19131   5.794   1.156   3.906 -0.1896 -0.8144  0.3037
 4986SOL    HW119132   5.746   1.101   3.968 -0.9247 -0.7979 -0.2486
 4986SOL    HW219133   5.741   1.155   3.827  2.1107 -3.1176 -1.2954
 4986SOL     MW19134   5.781   1.149   3.904  0.0114 -1.1071  0.0281
 4987SOL     OW19135   2.281   5.970   4.827 -0.2790  0.5467  0.0827
 4987SOL    HW119136   2.259   6.043   4.769 -1.4310  0.2722  0.1510
 4987SOL    HW219137   2.269   6.004   4.915  0.1347  0.5626  0.1324
 4987SOL     MW19138   2.276   5.983   4.831 -0.3736  0.5136  0.0978
 4988SOL     OW19139   1.487   4.662   0.779 -0.5083  0.1946 -0.1465
 4988SOL    HW119140   1.394   4.645   0.794 -0.2590 -0.3555  0.8126
 4988SOL    HW219141   1.488   4.736   0.718 -1.5717 -0.1641 -0.6238
 4988SOL     MW19142   1.475   4.669   0.773 -0.6125  0.0787 -0.0848
 4989SOL     OW19143   5.155   2.486   3.014 -0.1439  0.0046 -0.3174
 4989SOL    HW119144   5.080   2.429   3.030  0.8293 -1.2478 -0.1815
 4989SOL    HW219145   5.179   2.469   2.923  2.4524 -2.6029  0.7864
 4989SOL     MW19146   5.148   2.477   3.005  0.3128 -0.4897 -0.1590
 4990SOL     OW19147   0.039   2.822   2.320  0.1408 -0.1871  0.2581
 4990SOL    HW119148   0.096   2.817   2.397  1.5935  2.0667 -0.6044
 4990SOL    HW219149   0.026   2.731   2.293  2.3203 -0.8261  1.2292
 4990SOL     MW19150   0.045   2.810   2.326  0.6056  0.0196  0.2718
 4991SOL     OW19151   2.826   2.443   4.583  0.1165  0.4441  0.3430
 4991SOL    HW119152   2.773   2.401   4.651  0.0937 -0.2051 -0.0769
 4991SOL    HW219153   2.781   2.526   4.565 -1.3961 -0.6093 -0.8307
 4991SOL     MW19154   2.813   2.448   4.590 -0.0799  0.2263  0.1383
 4992SOL     OW19155   4.721   3.470   4.984 -0.0314 -0.3239 -0.1952
 4992SOL    HW119156   4.783   3.541   4.968 -0.9785  0.8320  1.0600
 4992SOL    HW219157   4.636   3.513   4.987 -0.5747 -1.4441  1.0269
 4992SOL     MW19158   4.718   3.485   4.983 -0.2217 -0.3195  0.1221
 4993SOL     OW19159   5.532   4.915   2.789 -0.0922  0.4654 -0.3148
 4993SOL    HW119160   5.571   4.933   2.875  1.4175 -0.2240 -0.8421
 4993SOL    HW219161   5.466   4.984   2.778 -0.5939  0.3193  1.5601
 4993SOL     MW19162   5.528   4.926   2.799  0.0372  0.3586 -0.1423
 4994SOL     OW19163   1.678   5.866   2.288 -0.6491  0.3069  0.0063
 4994SOL    HW119164   1.711   5.831   2.371  1.0203  1.0706 -0.3019
 4994SOL    HW219165   1.707   5.802   2.222  1.7182  1.7797 -0.4608
 4994SOL     MW19166   1.686   5.853   2.290 -0.1326  0.5932 -0.0927
 4995SOL     OW19167   1.946   3.864   2.475  0.2825  0.2279 -0.6767
 4995SOL    HW119168   1.961   3.771   2.492  1.9797  0.4065 -1.1249
 4995SOL    HW219169   1.873   3.866   2.413 -0.0377 -0.7851 -0.3330
 4995SOL     MW19170   1.938   3.852   2.469  0.4587  0.1209 -0.6897
 4996SOL     OW19171   2.850   1.465   3.054  0.3120 -0.9792 -0.3075
 4996SOL    HW119172   2.830   1.461   2.961  1.1941 -1.2663 -0.4939
 4996SOL    HW219173   2.944   1.450   3.059  1.0505  3.2022  0.2974
 4996SOL     MW19174   2.860   1.462   3.043  0.5195 -0.4807 -0.2542
 4997SOL     OW19175   3.429   2.847   3.550 -0.0746  0.2811  0.0543
 4997SOL    HW119176   3.336   2.862   3.535  0.1248  0.5785 -0.9392
 4997SOL    HW219177   3.442   2.754   3.535  0.0428  0.4986 -1.1852
 4997SOL     MW19178   3.419   2.837   3.546 -0.0341  0.3471 -0.2315
 4998SOL     OW19179   5.124   2.678   1.078 -0.2674  0.4810 -0.3807
 4998SOL    HW119180   5.057   2.628   1.124  0.3238  1.5293  1.6465
 4998SOL    HW219181   5.135   2.631   0.995 -1.3772 -1.4016  0.4946
 4998SOL     MW19182   5.117   2.666   1.073 -0.3333  0.3741 -0.0092
 4999SOL     OW19183   4.949   0.132   4.216 -0.7337 -0.1684 -0.1756
 4999SOL    HW119184   4.923   0.130   4.309 -1.1682  0.4130 -0.2876
 4999SOL    HW219185   4.910   0.212   4.182 -0.9916 -0.6463 -0.9916
 4999SOL     MW19186   4.941   0.142   4.224 -0.8225 -0.1552 -0.2947
 5000SOL     OW19187   3.950   5.722   4.089 -0.6087 -0.4600 -1.1002
 5000SOL    HW119188   3.929   5.666   4.014 -1.0733  0.4190 -1.6466
 5000SOL    HW219189   3.937   5.811   4.056  0.0316 -0.0342 -0.2227
 5000SOL     MW19190   3.945   5.726   4.075 -0.5863 -0.2933 -1.0581
 5001SOL     OW19191   3.204   2.572   5.024 -0.1612 -0.1021 -0.4255
 5001SOL    HW119192   3.193   2.506   4.956 -2.2743 -1.1541  0.8800
 5001SOL    HW219193   3.181   2.655   4.981 -0.9333 -0.6803 -1.1350
 5001SOL     MW19194   3.200   2.574   5.010 -0.5307 -0.3107 -0.3495
 5002SOL     OW19195   0.634   1.646   4.872 -0.0565  0.2057  0.0268
 5002SOL    HW119196   0.657   1.719   4.930  0.6502  0.4589 -0.5607
 5002SOL    HW219197   0.691   1.657   4.796 -1.8537  0.5971 -1.2914
 5002SOL     MW19198   0.645   1.657   4.870 -0.1960  0.2881 -0.2165
 5003SOL     OW19199   4.774   1.319   5.354 -0.8319 -0.5131  0.7881
 5003SOL    HW119200   4.736   1.376   5.288  2.3825  1.1359  0.2493
 5003SOL    HW219201   4.819   1.251   5.304  1.0757  0.3833  1.2321
 5003SOL     MW19202   4.775   1.318   5.339 -0.1764 -0.1872  0.7763
 5004SOL     OW19203   5.574   1.587   3.221 -0.5817  0.3666 -0.4365
 5004SOL    HW119204   5.494   1.622   3.182 -0.7482 -1.5978 -1.9215
 5004SOL    HW219205   5.559   1.493   3.225  2.1316 -0.1566 -1.8405
 5004SOL     MW19206   5.561   1.580   3.217 -0.2561  0.0480 -0.8063
 5005SOL     OW19207   4.976   1.006   3.005  0.1352 -0.5313  0.3379
 5005SOL    HW119208   5.055   0.952   2.996  0.4902 -0.2808  1.7257
 5005SOL    HW219209   4.993   1.059   3.083 -0.2120  1.5872 -1.0010
 5005SOL     MW19210   4.988   1.006   3.014  0.1359 -0.2280  0.3440
 5006SOL     OW19211   0.693   5.124   3.717 -0.1197  0.0833  0.0049
 5006SOL    HW119212   0.777   5.101   3.756 -0.5621  0.0424  0.9677
 5006SOL    HW219213   0.635   5.136   3.793 -0.3088  2.7726 -0.5236
 5006SOL     MW19214   0.696   5.122   3.732 -0.2006  0.4225  0.0606
 5007SOL     OW19215   3.174   5.562   3.031  0.0769 -0.1998 -0.0827
 5007SOL    HW119216   3.110   5.491   3.032 -0.0698 -0.1033 -1.4024
 5007SOL    HW219217   3.239   5.536   3.097 -1.3500 -0.2490  1.3357
 5007SOL     MW19218   3.174   5.549   3.040 -0.1245 -0.1936 -0.0699
 5008SOL     OW19219   4.213   5.506   4.267 -0.0168 -0.3379  0.3170
 5008SOL    HW119220   4.234   5.567   4.195  2.4717  1.5260  2.5488
 5008SOL    HW219221   4.136   5.546   4.309 -0.1742 -0.3117  0.0113
 5008SOL     MW19222   4.206   5.519   4.263  0.2818 -0.0963  0.5636
 5009SOL     OW19223   3.828   5.407   0.605  0.0641  0.1526 -0.0266
 5009SOL    HW119224   3.796   5.329   0.560 -0.8871  0.0731  0.7667
 5009SOL    HW219225   3.759   5.429   0.668  0.3942  1.5399 -0.1246
 5009SOL     MW19226   3.815   5.400   0.607 -0.0153  0.3200  0.0625
 5010SOL     OW19227   3.689   0.871   5.698  0.1419 -0.4132 -0.0854
 5010SOL    HW119228   3.637   0.812   5.643  0.7979 -0.5427 -0.5816
 5010SOL    HW219229   3.727   0.933   5.636  0.2568 -0.0752  0.3227
 5010SOL     MW19230   3.687   0.871   5.683  0.2406 -0.3865 -0.0963
 5011SOL     OW19231   4.367   2.361   0.051 -0.0764 -0.1903  0.0936
 5011SOL    HW119232   4.293   2.421   0.047 -0.9332 -1.3794 -3.0944
 5011SOL    HW219233   4.409   2.381   0.135 -1.7982  3.0709  0.2573
 5011SOL     MW19234   4.363   2.371   0.061 -0.4063  0.0751 -0.2935
 5012SOL     OW19235   0.536   4.080   2.864  0.0899  0.4186 -0.4049
 5012SOL    HW119236   0.624   4.042   2.856  0.4315  0.8470  1.1828
 5012SOL    HW219237   0.515   4.111   2.776  0.1431 -2.7019 -1.5724
 5012SOL     MW19238   0.544   4.079   2.852  0.1404  0.0739 -0.3507
 5013SOL     OW19239   0.491   1.095   2.088 -0.2179  0.2096 -0.3157
 5013SOL    HW119240   0.568   1.046   2.117  0.7460  1.0231 -1.4524
 5013SOL    HW219241   0.424   1.077   2.155  0.5750 -1.4545  0.0437
 5013SOL     MW19242   0.492   1.086   2.101  0.0070  0.1006 -0.4153
 5014SOL     OW19243   4.050   5.994   0.583  0.0321  0.1894 -0.2583
 5014SOL    HW119244   4.137   5.961   0.604 -0.9015 -0.9233  2.0087
 5014SOL    HW219245   4.032   6.060   0.650 -0.6906  0.7564 -0.9922
 5014SOL     MW19246   4.059   5.998   0.594 -0.1798  0.1196 -0.0620
 5015SOL     OW19247   0.337   2.324   0.949  0.2739  0.0698 -0.5428
 5015SOL    HW119248   0.328   2.234   0.979 -0.0665  0.2480 -0.1147
 5015SOL    HW219249   0.251   2.347   0.914  0.6850 -0.1616 -1.7260
 5015SOL     MW19250   0.325   2.316   0.948  0.2829  0.0632 -0.6395
 5016SOL     OW19251   3.512   3.489   2.642  0.1919  0.1119  0.1144
 5016SOL    HW119252   3.549   3.530   2.564  1.6375 -0.1757  0.6371
 5016SOL    HW219253   3.460   3.558   2.683 -0.3396  0.3447 -0.9579
 5016SOL     MW19254   3.510   3.503   2.637  0.3090  0.1049  0.0439
 5017SOL     OW19255   2.510   4.527   3.735  0.2627 -0.3127 -0.2006
 5017SOL    HW119256   2.482   4.608   3.693 -4.6836 -1.8193 -0.1204
 5017SOL    HW219257   2.589   4.501   3.688  0.3870  3.1051 -1.9983
 5017SOL     MW19258   2.517   4.534   3.724 -0.3548 -0.0682 -0.4206
 5018SOL     OW19259   2.715   1.185   5.352  0.0326 -0.1954 -0.1926
 5018SOL    HW119260   2.678   1.167   5.266 -1.7084  1.9157  0.0791
 5018SOL    HW219261   2.682   1.113   5.407  1.1504 -1.5441 -1.2346
 5018SOL     MW19262   2.706   1.173   5.348 -0.0472 -0.0978 -0.2913
 5019SOL     OW19263   3.698   2.649   0.570 -0.2773 -0.3768  0.6669
 5019SOL    HW119264   3.605   2.630   0.553 -0.2154 -0.6412  0.6224
 5019SOL    HW219265   3.718   2.722   0.511 -0.4042 -0.4507  0.5311
 5019SOL     MW19266   3.689   2.656   0.560 -0.2859 -0.4203  0.6437
 5020SOL     OW19267   2.859   3.009   4.699 -0.7272  0.2663 -0.5593
 5020SOL    HW119268   2.942   2.977   4.735 -1.3936 -1.3737 -0.4234
 5020SOL    HW219269   2.869   3.001   4.605 -1.0584 -0.8128 -0.5115
 5020SOL     MW19270   2.871   3.004   4.692 -0.8550 -0.0815 -0.5355
 5021SOL     OW19271   0.189   5.348   2.105 -0.2244  0.0280 -0.1419
 5021SOL    HW119272   0.226   5.389   2.027 -1.5166  0.6724 -0.4376
 5021SOL    HW219273   0.249   5.370   2.176 -0.7849  2.2485 -0.3348
 5021SOL     MW19274   0.201   5.356   2.104 -0.4615  0.3948 -0.2046
 5022SOL     OW19275   0.044   1.268   4.971  0.1270 -0.2355  0.2549
 5022SOL    HW119276   0.062   1.249   5.063 -1.5242 -1.9020  0.2656
 5022SOL    HW219277  -0.039   1.224   4.953  0.7556 -0.5005 -2.2143
 5022SOL     MW19278   0.036   1.260   4.981 -0.0039 -0.4827 -0.0596
 5023SOL     OW19279   2.240   0.210   4.696 -0.4178  0.4490 -0.0729
 5023SOL    HW119280   2.148   0.215   4.669 -1.1310 -3.2464  1.4633
 5023SOL    HW219281   2.238   0.225   4.791  1.1344  4.7716 -0.6072
 5023SOL     MW19282   2.228   0.213   4.705 -0.3102  0.5293  0.0548
 5024SOL     OW19283   3.841   5.275   0.227  0.1933  0.6033  0.4703
 5024SOL    HW119284   3.825   5.304   0.137  0.6173  1.6376  0.7280
 5024SOL    HW219285   3.889   5.347   0.268  0.8350 -0.2586  1.2568
 5024SOL     MW19286   3.845   5.288   0.221  0.3300  0.6251  0.6040
 5025SOL     OW19287   0.705   5.470   0.194 -0.0728  0.4166 -0.1652
 5025SOL    HW119288   0.619   5.435   0.217  0.6522 -0.4541  1.2868
 5025SOL    HW219289   0.690   5.564   0.185 -0.7778  0.5555  2.1112
 5025SOL     MW19290   0.692   5.478   0.196 -0.0703  0.3233  0.3121
 5026SOL     OW19291   3.383   1.530   1.473  0.5316  0.2597  0.3498
 5026SOL    HW119292   3.415   1.620   1.477 -1.8306  1.1177  1.0268
 5026SOL    HW219293   3.328   1.528   1.395  1.2765 -0.8581 -0.1604
 5026SOL     MW19294   3.380   1.541   1.463  0.3242  0.2265  0.3711
 5027SOL     OW19295   3.427   3.053   5.346  0.2691 -0.0325 -0.3103
 5027SOL    HW119296   3.489   3.101   5.291  1.4359 -1.5065 -0.3149
 5027SOL    HW219297   3.427   3.101   5.429 -1.4025  2.1252 -1.5032
 5027SOL     MW19298   3.435   3.065   5.349  0.2048  0.0548 -0.4630
 5028SOL     OW19299   2.857   2.268   2.240 -0.3085 -0.2338 -0.2287
 5028SOL    HW119300   2.877   2.261   2.147 -0.3665  0.4154 -0.2938
 5028SOL    HW219301   2.769   2.306   2.243  0.2202  0.9965  0.0968
 5028SOL     MW19302   2.848   2.272   2.229 -0.2482  0.0064 -0.1950
 5029SOL     OW19303   4.834   2.768   1.225 -0.4597  0.3067 -0.4941
 5029SOL    HW119304   4.895   2.814   1.282 -0.8283 -1.3237  1.2784
 5029SOL    HW219305   4.760   2.827   1.216 -0.1855  0.7858  0.3233
 5029SOL     MW19306   4.832   2.781   1.231 -0.4716  0.1595 -0.1625
 5030SOL     OW19307   5.914   4.508   3.493  0.3666 -0.0152  0.2004
 5030SOL    HW119308   5.927   4.520   3.399 -1.7113 -1.0054 -0.2321
 5030SOL    HW219309   5.864   4.585   3.520 -1.2772 -0.9973 -0.0087
 5030SOL     MW19310   5.909   4.519   3.484 -0.1101 -0.2675  0.1183
 5031SOL     OW19311   3.887   5.109   1.156  0.0661 -0.2005  0.0858
 5031SOL    HW119312   3.958   5.159   1.196 -1.2488  0.9786  0.9854
 5031SOL    HW219313   3.843   5.066   1.229 -1.9811  1.4806 -0.0838
 5031SOL     MW19314   3.890   5.110   1.170 -0.3643  0.1655  0.1793
 5032SOL     OW19315   5.063   3.954   2.174  0.3441  0.9674 -0.0636
 5032SOL    HW119316   5.088   4.006   2.251 -1.1449 -0.4152  1.3779
 5032SOL    HW219317   4.974   3.981   2.155  1.2383  2.4816 -2.3426
 5032SOL     MW19318   5.055   3.964   2.181  0.2680  0.9844 -0.1709
 5033SOL     OW19319   2.513   5.217   4.075 -0.5167 -0.3047  0.2782
 5033SOL    HW119320   2.599   5.213   4.118 -0.7270  1.4043  0.8736
 5033SOL    HW219321   2.529   5.179   3.989  0.7542 -0.3938  0.5317
 5033SOL     MW19322   2.526   5.211   4.070 -0.3805 -0.0973  0.3867
 5034SOL     OW19323   2.538   5.480   4.989  0.1521 -0.2142  0.2860
 5034SOL    HW119324   2.514   5.397   4.949  0.7868  1.2143 -3.1964
 5034SOL    HW219325   2.457   5.531   4.991  0.7640  0.9286 -2.3113
 5034SOL     MW19326   2.525   5.476   4.984  0.3116  0.1149 -0.4921
 5035SOL     OW19327   4.547   4.618   4.618  0.4902 -0.3856 -0.0232
 5035SOL    HW119328   4.506   4.575   4.693 -1.5714 -0.1751 -0.9905
 5035SOL    HW219329   4.541   4.711   4.638  0.8137 -0.3677 -0.0100
 5035SOL     MW19330   4.541   4.624   4.630  0.2685 -0.3567 -0.1450
 5036SOL     OW19331   1.843   1.543   3.952 -0.7946 -0.0779 -0.1058
 5036SOL    HW119332   1.766   1.494   3.924 -0.3165 -1.5347  1.0025
 5036SOL    HW219333   1.907   1.530   3.882 -0.6017 -1.2617  0.2682
 5036SOL     MW19334   1.841   1.535   3.940 -0.7086 -0.4160  0.0842
 5037SOL     OW19335   0.029   3.680   2.290  0.0494 -0.4244 -0.0668
 5037SOL    HW119336   0.019   3.774   2.301  0.5026 -0.4676  0.8045
 5037SOL    HW219337   0.121   3.668   2.266  0.2005 -0.7017  0.6233
 5037SOL     MW19338   0.040   3.690   2.288  0.1268 -0.4654  0.1333
 5038SOL     OW19339   4.475   5.277   1.651 -0.6861  0.1439  0.1134
 5038SOL    HW119340   4.481   5.181   1.647  0.9104  0.1971  1.0542
 5038SOL    HW219341   4.565   5.307   1.639 -0.9220  1.4678  1.5507
 5038SOL     MW19342   4.487   5.269   1.649 -0.5116  0.3200  0.4178
 5039SOL     OW19343   2.506   0.455   3.172  0.3087 -0.7829  0.1313
 5039SOL    HW119344   2.558   0.377   3.193 -0.4298 -1.8290 -1.8474
 5039SOL    HW219345   2.513   0.464   3.077 -0.6197  0.8658  0.1989
 5039SOL     MW19346   2.514   0.446   3.162  0.0954 -0.7057 -0.1132
 5040SOL     OW19347   2.679   5.251   0.374  0.4785  0.3683  0.2361
 5040SOL    HW119348   2.586   5.253   0.351  0.3806  2.0572  0.7126
 5040SOL    HW219349   2.681   5.252   0.469  0.9616 -2.7671  0.3232
 5040SOL     MW19350   2.667   5.251   0.383  0.5281  0.1831  0.3082
 5041SOL     OW19351   3.358   3.884   0.676  0.5529  0.4126 -0.3162
 5041SOL    HW119352   3.393   3.815   0.731  0.0659  0.1854 -0.2892
 5041SOL    HW219353   3.291   3.927   0.730 -0.5491 -0.3780 -1.0217
 5041SOL     MW19354   3.354   3.881   0.690  0.3495  0.2823 -0.4031
 5042SOL     OW19355   5.047   5.219   3.305  0.0554  0.0910  0.2508
 5042SOL    HW119356   4.958   5.253   3.300 -0.2849 -0.5660  1.5377
 5042SOL    HW219357   5.037   5.124   3.305  0.7174  0.0106  0.8630
 5042SOL     MW19358   5.034   5.211   3.305  0.0963 -0.0029  0.4940
 5043SOL     OW19359   4.927   5.839   1.832 -0.6208  0.1948  1.2697
 5043SOL    HW119360   4.922   5.895   1.910  1.0416 -1.0003  2.2615
 5043SOL    HW219361   4.963   5.757   1.864 -1.3396 -0.8319 -0.5123
 5043SOL     MW19362   4.931   5.836   1.847 -0.5002 -0.0896  1.1686
 5044SOL     OW19363   3.962   3.256   3.183 -0.1993 -0.0519  0.3196
 5044SOL    HW119364   4.034   3.293   3.234  0.0099 -0.4692  0.3322
 5044SOL    HW219365   3.899   3.225   3.248 -0.5378  0.5995  0.3035
 5044SOL     MW19366   3.963   3.257   3.198 -0.2160 -0.0219  0.3190
 5045SOL     OW19367   4.260   1.053   4.565 -0.4163  0.5249 -0.0234
 5045SOL    HW119368   4.202   1.000   4.620  0.8229 -1.2751 -0.4151
 5045SOL    HW219369   4.217   1.054   4.479 -1.3235  1.6477  0.4275
 5045SOL     MW19370   4.247   1.047   4.561 -0.3734  0.4381 -0.0157
 5046SOL     OW19371   2.667   3.761   4.175  0.3843  0.1015 -0.0572
 5046SOL    HW119372   2.746   3.739   4.224  0.3037 -2.2003 -0.9105
 5046SOL    HW219373   2.649   3.684   4.121 -3.5332 -0.2371  1.5395
 5046SOL     MW19374   2.675   3.749   4.174 -0.1278 -0.2365  0.0377
 5047SOL     OW19375   1.556   0.457   4.357 -0.2445 -0.3713  0.4262
 5047SOL    HW119376   1.466   0.486   4.371 -0.9560 -1.8140 -1.0133
 5047SOL    HW219377   1.559   0.368   4.391  1.0248  0.1279  1.7003
 5047SOL     MW19378   1.545   0.450   4.363 -0.1731 -0.4921  0.4053
 5048SOL     OW19379   3.277   4.226   5.020 -0.7140 -0.0414 -0.6856
 5048SOL    HW119380   3.220   4.284   4.970  0.4566  0.8337 -1.0420
 5048SOL    HW219381   3.246   4.234   5.110 -0.9799  0.6304 -0.8329
 5048SOL     MW19382   3.266   4.234   5.025 -0.5982  0.1569 -0.7505
 5049SOL     OW19383   1.191   0.347   0.400 -0.2083  0.2307  0.3974
 5049SOL    HW119384   1.235   0.427   0.427  0.1176 -0.3302  1.5558
 5049SOL    HW219385   1.221   0.332   0.310  3.5964 -1.2231  1.8120
 5049SOL     MW19386   1.201   0.355   0.392  0.3204 -0.0272  0.7268
 5050SOL     OW19387   4.392   0.398   2.733  0.1225  0.3429  0.0323
 5050SOL    HW119388   4.345   0.320   2.702  0.1685  0.1930  0.3452
 5050SOL    HW219389   4.326   0.448   2.780  0.3611 -0.0408  0.7826
 5050SOL     MW19390   4.377   0.394   2.735  0.1588  0.2746  0.1686
 5051SOL     OW19391   4.778   0.956   2.147  0.2948  0.9985 -0.2313
 5051SOL    HW119392   4.799   0.952   2.240 -0.2140 -0.1706 -0.1595
 5051SOL    HW219393   4.737   0.872   2.128 -0.3639  1.5536 -1.3246
 5051SOL     MW19394   4.775   0.945   2.157  0.1454  0.9199 -0.3619
 5052SOL     OW19395   1.213   2.659   4.826 -0.5189  0.2019 -0.4698
 5052SOL    HW119396   1.127   2.639   4.789 -1.6537  0.3959  1.9736
 5052SOL    HW219397   1.194   2.711   4.904  1.8423  0.5391 -0.0954
 5052SOL     MW19398   1.200   2.663   4.831 -0.3618  0.2699 -0.1087
 5053SOL     OW19399   4.538   5.346   3.126 -0.2364 -0.6809  0.3475
 5053SOL    HW119400   4.506   5.351   3.036  1.8161 -0.2658 -0.3896
 5053SOL    HW219401   4.508   5.261   3.157  0.7296 -1.7016 -1.4277
 5053SOL     MW19402   4.530   5.336   3.118  0.1502 -0.7582  0.0260
 5054SOL     OW19403   5.454   5.941   5.655 -0.0861 -0.1757  0.4203
 5054SOL    HW119404   5.540   5.952   5.697  0.0508 -2.3159  0.7544
 5054SOL    HW219405   5.455   6.002   5.582  3.5747 -3.3715 -2.4115
 5054SOL     MW19406   5.465   5.950   5.651  0.4001 -0.8588  0.1006
 5055SOL     OW19407   5.596   2.438   1.215 -0.5372  0.6138  0.3663
 5055SOL    HW119408   5.611   2.349   1.182 -1.1970 -0.0798  1.8686
 5055SOL    HW219409   5.661   2.492   1.170  0.7994 -0.8829  0.4635
 5055SOL     MW19410   5.607   2.433   1.205 -0.4506  0.3333  0.5710
 5056SOL     OW19411   0.835   0.574   2.069 -0.3699  0.3814 -0.4667
 5056SOL    HW119412   0.887   0.574   1.988 -0.0715 -1.4840 -0.3103
 5056SOL    HW219413   0.811   0.482   2.081 -1.2366  0.7954  1.0561
 5056SOL     MW19414   0.838   0.562   2.060 -0.4427  0.1957 -0.2518
 5057SOL     OW19415   4.685   2.899   0.730 -0.6055 -0.5823 -0.2573
 5057SOL    HW119416   4.655   2.858   0.649 -0.5605 -1.2245  0.0500
 5057SOL    HW219417   4.727   2.828   0.779  1.6197  0.3503 -0.7737
 5057SOL     MW19418   4.687   2.885   0.726 -0.3142 -0.5450 -0.2841
 5058SOL     OW19419   5.277   0.896   3.644 -0.1802 -0.3774 -0.1812
 5058SOL    HW119420   5.184   0.912   3.628  0.1295 -0.2792 -2.0127
 5058SOL    HW219421   5.311   0.980   3.674 -0.4058 -0.0584 -0.8261
 5058SOL     MW19422   5.270   0.909   3.646 -0.1688 -0.3240 -0.4983
 5059SOL     OW19423   3.694   0.945   3.378  0.2088  0.4989  0.0236
 5059SOL    HW119424   3.734   1.029   3.358 -0.0898  0.3712 -1.1766
 5059SOL    HW219425   3.686   0.901   3.293  0.1939 -0.6617  0.6127
 5059SOL     MW19426   3.698   0.950   3.365  0.1688  0.3339 -0.0546
 5060SOL     OW19427   4.504   2.434   0.258  0.1894  0.1037 -0.4163
 5060SOL    HW119428   4.474   2.376   0.328  2.3555  1.6540  1.9183
 5060SOL    HW219429   4.599   2.440   0.271  0.6645  0.4079 -3.5653
 5060SOL     MW19430   4.512   2.428   0.269  0.5269  0.3409 -0.5205
 5061SOL     OW19431   1.347   4.218   5.038 -0.5992 -0.1317 -0.1968
 5061SOL    HW119432   1.421   4.258   5.083 -2.0600  1.6192  0.7352
 5061SOL    HW219433   1.275   4.222   5.101 -2.5908  2.0517 -2.4560
 5061SOL     MW19434   1.347   4.224   5.051 -1.0411  0.3719 -0.3672
 5062SOL     OW19435   3.887   1.027   4.201 -0.0413 -0.6770 -0.0577
 5062SOL    HW119436   3.865   0.966   4.130  1.4833 -1.9866  0.5507
 5062SOL    HW219437   3.922   1.104   4.157 -2.3152 -0.0861 -0.8569
 5062SOL     MW19438   3.889   1.029   4.187 -0.1373 -0.7689 -0.0820
 5063SOL     OW19439   0.258   4.525   4.837  0.7526 -0.5142 -0.2792
 5063SOL    HW119440   0.216   4.585   4.776 -0.6759  1.3100  2.3980
 5063SOL    HW219441   0.198   4.519   4.911  2.9114 -1.7715  1.4532
 5063SOL     MW19442   0.245   4.532   4.839  0.8461 -0.4416  0.2847
 5064SOL     OW19443   4.687   2.432   1.040  0.1293  0.5323  0.3937
 5064SOL    HW119444   4.718   2.454   0.952 -1.9582  0.0108 -0.4946
 5064SOL    HW219445   4.695   2.337   1.045 -2.3962  0.2504 -0.2990
 5064SOL     MW19446   4.692   2.423   1.030 -0.4611  0.4296  0.1912
 5065SOL     OW19447   3.459   1.463   5.546  0.1657  0.4766  0.1981
 5065SOL    HW119448   3.438   1.492   5.635 -0.8179 -2.3513  0.9428
 5065SOL    HW219449   3.554   1.457   5.544  0.2237  1.1300  0.8565
 5065SOL     MW19450   3.468   1.466   5.557  0.0474  0.1984  0.3777
 5066SOL     OW19451   2.796   5.875   4.437 -0.3906  0.2144 -0.1488
 5066SOL    HW119452   2.859   5.817   4.393  0.9440  1.8691 -0.4546
 5066SOL    HW219453   2.791   5.841   4.526 -1.6677 -2.0024 -1.0228
 5066SOL     MW19454   2.804   5.863   4.443 -0.3829  0.1421 -0.2995
 5067SOL     OW19455   0.472   5.765   4.590  0.8506  0.0342 -0.5589
 5067SOL    HW119456   0.522   5.813   4.655  0.9837 -1.5116  0.5189
 5067SOL    HW219457   0.477   5.818   4.511  1.3944  1.5228  0.4620
 5067SOL     MW19458   0.479   5.778   4.588  0.9372  0.0267 -0.2904
 5068SOL     OW19459   2.465   1.944   0.711 -0.3467  0.6943  0.2407
 5068SOL    HW119460   2.426   1.857   0.720  0.5982  0.2717  0.4167
 5068SOL    HW219461   2.536   1.945   0.776 -0.9200  1.9286  0.8748
 5068SOL     MW19462   2.469   1.933   0.720 -0.2990  0.7981  0.3444
 5069SOL     OW19463   2.484   2.329   1.487  0.4557 -0.7888  0.4950
 5069SOL    HW119464   2.467   2.237   1.465 -2.2925 -0.0079 -0.8779
 5069SOL    HW219465   2.452   2.378   1.411 -1.2448  1.4931  2.6066
 5069SOL     MW19466   2.478   2.324   1.475 -0.1140 -0.3967  0.5895
 5070SOL     OW19467   1.444   2.678   2.641 -0.0152 -0.0972  0.6098
 5070SOL    HW119468   1.406   2.595   2.667  0.9046 -1.1085 -1.1679
 5070SOL    HW219469   1.445   2.675   2.545 -0.8984  2.3765  0.4715
 5070SOL     MW19470   1.439   2.667   2.632 -0.0106  0.0899  0.3643
 5071SOL     OW19471   3.355   3.290   2.537 -0.1780 -0.1881  0.5200
 5071SOL    HW119472   3.418   3.345   2.585  1.4441  0.9086 -2.7571
 5071SOL    HW219473   3.315   3.349   2.473 -1.0979 -1.9958 -0.5956
 5071SOL     MW19474   3.358   3.305   2.535 -0.0880 -0.2789 -0.0422
 5072SOL     OW19475   5.169   5.007   5.073 -0.3783 -0.3095  0.4649
 5072SOL    HW119476   5.218   5.049   5.003  0.7933 -0.0499  1.4214
 5072SOL    HW219477   5.225   4.935   5.102  0.2546  1.0715  2.7602
 5072SOL     MW19478   5.182   5.003   5.068 -0.1473 -0.0992  0.8812
 5073SOL     OW19479   5.108   2.200   1.270  0.2405 -0.2797 -0.1855
 5073SOL    HW119480   5.062   2.133   1.220 -2.1475  1.5888 -0.5816
 5073SOL    HW219481   5.122   2.160   1.356 -3.1505 -0.5688  0.3088
 5073SOL     MW19482   5.104   2.186   1.275 -0.4997 -0.0772 -0.1730
 5074SOL     OW19483   3.956   5.145   5.804  0.3938  0.2270  0.1434
 5074SOL    HW119484   4.044   5.109   5.799  1.0027  1.7795 -0.7566
 5074SOL    HW219485   3.934   5.168   5.714 -1.1921 -0.7244  0.2639
 5074SOL     MW19486   3.964   5.144   5.792  0.2687  0.3042  0.0434
 5075SOL     OW19487   0.622   1.527   5.789  0.0462  0.3689  0.0055
 5075SOL    HW119488   0.606   1.435   5.810  1.3145 -0.3230 -1.8658
 5075SOL    HW219489   0.538   1.570   5.805 -0.9591 -1.3734 -0.3670
 5075SOL     MW19490   0.609   1.521   5.794  0.0799  0.0572 -0.2818
 5076SOL     OW19491   2.244   4.782   1.805 -0.1056  0.2591  0.5702
 5076SOL    HW119492   2.250   4.772   1.710  1.7078 -0.3559  0.7256
 5076SOL    HW219493   2.248   4.876   1.820  2.7349  0.2440  0.1765
 5076SOL     MW19494   2.246   4.793   1.795  0.4902  0.1783  0.5397
 5077SOL     OW19495   1.206   4.961   2.946  0.0889 -0.0992 -0.3042
 5077SOL    HW119496   1.294   4.996   2.949  0.2819 -0.5807 -0.2891
 5077SOL    HW219497   1.150   5.036   2.927  0.2544  0.6419  1.9213
 5077SOL     MW19498   1.210   4.975   2.944  0.1347 -0.0658 -0.0174
 5078SOL     OW19499   0.146   4.639   3.568 -1.1271  0.0880 -0.2592
 5078SOL    HW119500   0.057   4.604   3.564 -0.7584 -0.8972  0.0828
 5078SOL    HW219501   0.152   4.679   3.655 -1.1180 -0.1610 -0.1450
 5078SOL     MW19502   0.135   4.640   3.579 -1.0788 -0.0701 -0.2007
 5079SOL     OW19503   4.199   3.045   5.298 -0.4401  0.2043 -0.4214
 5079SOL    HW119504   4.268   2.993   5.339  0.4446  0.0599 -2.0499
 5079SOL    HW219505   4.222   3.046   5.205 -2.1734  0.8721 -0.8603
 5079SOL     MW19506   4.210   3.039   5.292 -0.5488  0.2711 -0.6862
 5080SOL     OW19507   0.140   4.927   5.284  0.2707 -0.0335  0.3882
 5080SOL    HW119508   0.153   4.999   5.346  0.7226  1.4471 -1.3616
 5080SOL    HW219509   0.052   4.942   5.249 -0.4124 -1.4852  1.4265
 5080SOL     MW19510   0.131   4.939   5.287  0.2411 -0.0300  0.2971
 5081SOL     OW19511   2.242   3.496   2.660  0.3064  1.1967 -0.2381
 5081SOL    HW119512   2.311   3.437   2.632  0.8644  1.2138  1.0462
 5081SOL    HW219513   2.216   3.463   2.746 -0.2106  2.1132 -0.0368
 5081SOL     MW19514   2.247   3.484   2.668  0.3116  1.3161 -0.0482
 5082SOL     OW19515   0.874   1.777   2.425 -0.2459 -0.0150 -0.1043
 5082SOL    HW119516   0.781   1.757   2.427 -0.0403 -0.9095  0.4975
 5082SOL    HW219517   0.878   1.871   2.406 -1.2439 -0.1387 -0.9180
 5082SOL     MW19518   0.863   1.787   2.423 -0.3473 -0.1453 -0.1314
 5083SOL     OW19519   2.030   2.673   5.679 -0.1844  0.5396 -0.0999
 5083SOL    HW119520   1.942   2.657   5.645  0.0789 -2.1176  0.3557
 5083SOL    HW219521   2.051   2.594   5.728  2.3888  1.2399 -0.0202
 5083SOL     MW19522   2.021   2.661   5.681  0.1786  0.2894 -0.0310
 5084SOL     OW19523   5.142   2.966   2.920  0.0752  0.0354 -0.1441
 5084SOL    HW119524   5.201   2.923   2.858 -0.1042  0.1165 -0.3697
 5084SOL    HW219525   5.107   3.041   2.873 -1.2437 -0.7724 -0.4776
 5084SOL     MW19526   5.145   2.970   2.906 -0.1173 -0.0577 -0.2155
 5085SOL     OW19527   5.840   0.703   0.028  0.0072  0.5147 -0.0089
 5085SOL    HW119528   5.808   0.725  -0.059 -1.5046 -0.0459  0.3917
 5085SOL    HW219529   5.882   0.618   0.018  1.0276  1.0737 -0.4619
 5085SOL     MW19530   5.841   0.695   0.016 -0.0558  0.5144 -0.0156
 5086SOL     OW19531   0.075   4.726   2.777  0.1340  0.5818 -0.0507
 5086SOL    HW119532   0.044   4.816   2.791 -0.5102  0.1386  1.4216
 5086SOL    HW219533  -0.002   4.671   2.794  0.6139 -0.2721 -0.6206
 5086SOL     MW19534   0.061   4.731   2.781  0.1130  0.4158  0.0651
 5087SOL     OW19535   2.953   3.076   5.404 -0.6975 -0.5054  0.3825
 5087SOL    HW119536   2.971   3.002   5.346 -0.2711  0.1725 -0.3759
 5087SOL    HW219537   2.937   3.149   5.344 -2.6491 -0.3260  1.0967
 5087SOL     MW19538   2.954   3.076   5.389 -0.8926 -0.3958  0.3767
 5088SOL     OW19539   2.304   4.153   3.756  0.7732  0.0726  0.2805
 5088SOL    HW119540   2.220   4.115   3.784  0.9502  0.5199  1.4518
 5088SOL    HW219541   2.343   4.186   3.837  2.1406 -0.2371 -0.2412
 5088SOL     MW19542   2.298   4.152   3.770  0.9708  0.0896  0.3636
 5089SOL     OW19543   5.133   5.051   1.000  0.3532  0.1356  0.0526
 5089SOL    HW119544   5.190   4.999   1.056  0.2393 -0.5579 -0.4670
 5089SOL    HW219545   5.059   5.075   1.056  0.0399 -0.8958  0.0859
 5089SOL     MW19546   5.130   5.048   1.014  0.2990 -0.0854 -0.0097
 5090SOL     OW19547   2.774   5.178   4.167  0.1708 -0.4672 -0.5231
 5090SOL    HW119548   2.798   5.229   4.244 -1.0438  1.1134 -1.1697
 5090SOL    HW219549   2.816   5.093   4.180 -0.0532 -0.2242  1.8862
 5090SOL     MW19550   2.782   5.174   4.178 -0.0134 -0.2337 -0.2975
 5091SOL     OW19551   5.421   5.139   5.286 -0.7023  0.4602  0.3207
 5091SOL    HW119552   5.345   5.117   5.340 -0.1115 -0.4514  0.7937
 5091SOL    HW219553   5.493   5.090   5.325 -0.0915  0.4607 -0.7844
 5091SOL     MW19554   5.420   5.129   5.298 -0.5488  0.3433  0.2398
 5092SOL     OW19555   5.147   2.505   1.443  0.1197  0.0032 -0.0384
 5092SOL    HW119556   5.140   2.444   1.516  0.0107 -0.4588 -0.4309
 5092SOL    HW219557   5.173   2.588   1.483  0.0579 -0.2465  0.5218
 5092SOL     MW19558   5.149   2.508   1.458  0.0978 -0.0880 -0.0169
 5093SOL     OW19559   1.546   2.549   5.137 -0.3930  0.0048  0.4097
 5093SOL    HW119560   1.621   2.518   5.188  0.1930  0.8798  0.0913
 5093SOL    HW219561   1.528   2.637   5.172 -0.5481  0.2529 -0.2879
 5093SOL     MW19562   1.553   2.556   5.148 -0.3377  0.1485  0.2789
 5094SOL     OW19563   4.186   0.135   2.935 -0.4739 -0.0428  0.2000
 5094SOL    HW119564   4.176   0.197   3.007 -0.0126 -1.2533  1.3407
 5094SOL    HW219565   4.120   0.068   2.952  0.3489 -0.8972  0.1168
 5094SOL     MW19566   4.177   0.134   2.947 -0.3095 -0.3071  0.3350
 5095SOL     OW19567   2.108   0.207   3.558 -0.7152 -0.6389 -0.5807
 5095SOL    HW119568   2.196   0.214   3.596 -0.3844  0.1187 -1.4637
 5095SOL    HW219569   2.051   0.187   3.633  0.0741 -0.1710  0.1539
 5095SOL     MW19570   2.112   0.205   3.572 -0.5720 -0.4821 -0.5999
 5096SOL     OW19571   0.301   5.824   3.795  0.2168  0.1893  0.3471
 5096SOL    HW119572   0.390   5.859   3.804  1.1020 -1.7795 -0.4545
 5096SOL    HW219573   0.297   5.790   3.706 -1.7875  1.3935 -0.0607
 5096SOL     MW19574   0.312   5.824   3.785  0.0736  0.0911  0.1922
 5097SOL     OW19575   1.599   5.171   5.241  0.1151 -0.4996 -0.1136
 5097SOL    HW119576   1.638   5.095   5.283 -1.4423 -1.7242 -0.8113
 5097SOL    HW219577   1.550   5.214   5.311 -0.8090 -1.3956 -0.1939
 5097SOL     MW19578   1.598   5.167   5.255 -0.2025 -0.7710 -0.2127
 5098SOL     OW19579   3.687   2.604   1.064 -0.0936  0.0231  0.0810
 5098SOL    HW119580   3.674   2.509   1.065  0.7992 -0.1058 -0.2117
 5098SOL    HW219581   3.739   2.620   0.986 -0.4780  0.7889 -0.0194
 5098SOL     MW19582   3.692   2.594   1.054 -0.0284  0.1044  0.0305
 5099SOL     OW19583   1.997   4.309   2.991  0.4587  0.2967  0.2422
 5099SOL    HW119584   1.924   4.369   2.985 -0.1854 -0.1840  2.8243
 5099SOL    HW219585   2.000   4.283   3.083  0.2612 -4.1619 -0.8855
 5099SOL     MW19586   1.988   4.313   3.002  0.3510 -0.3357  0.4284
 5100SOL     OW19587   3.184   2.367   0.362  0.2593  0.4188 -0.6091
 5100SOL    HW119588   3.196   2.278   0.396  1.2227  1.0064  0.6139
 5100SOL    HW219589   3.089   2.374   0.349 -0.0473 -0.1363  1.1422
 5100SOL     MW19590   3.173   2.356   0.365  0.3436  0.4230 -0.2284
 5101SOL     OW19591   2.053   0.444   3.428 -0.0974 -0.0387 -0.7356
 5101SOL    HW119592   2.058   0.364   3.480 -0.3401 -0.9452 -2.0881
 5101SOL    HW219593   2.093   0.511   3.483 -0.6660 -0.9061  0.7583
 5101SOL     MW19594   2.059   0.442   3.441 -0.2015 -0.2657 -0.7174
 5102SOL     OW19595   3.400   2.980   1.897  0.0156 -0.1106  0.5759
 5102SOL    HW119596   3.493   2.981   1.874 -0.0854 -2.2014 -0.0163
 5102SOL    HW219597   3.385   2.891   1.929 -1.9400  0.0281  0.0512
 5102SOL     MW19598   3.410   2.969   1.898 -0.2477 -0.3607  0.4330
 5103SOL     OW19599   5.889   4.700   5.332 -0.0668  0.0143 -0.1235
 5103SOL    HW119600   5.904   4.677   5.240  0.2760  2.2585 -0.6562
 5103SOL    HW219601   5.794   4.691   5.344  0.2974 -3.9684  0.3804
 5103SOL     MW19602   5.879   4.696   5.322  0.0229 -0.2079 -0.1273
 5104SOL     OW19603   4.390   5.438   0.462  0.1285 -0.5466 -0.1620
 5104SOL    HW119604   4.463   5.397   0.509 -0.4627 -1.2560  0.1611
 5104SOL    HW219605   4.323   5.369   0.459  0.7783 -1.0997 -3.5649
 5104SOL     MW19606   4.391   5.424   0.468  0.1364 -0.7086 -0.5563
 5105SOL     OW19607   4.200   2.388   1.112  0.3677 -0.1834 -0.7655
 5105SOL    HW119608   4.126   2.444   1.087  0.7967  0.4834 -0.5518
 5105SOL    HW219609   4.188   2.308   1.061 -1.9044 -1.1211  1.1144
 5105SOL     MW19610   4.189   2.385   1.103  0.1316 -0.2179 -0.4975
 5106SOL     OW19611   4.813   3.414   5.241 -0.3251 -0.0936  0.1635
 5106SOL    HW119612   4.768   3.423   5.157 -2.8594  0.3364  1.5126
 5106SOL    HW219613   4.815   3.503   5.276  0.6296 -0.2889  0.6185
 5106SOL     MW19614   4.808   3.427   5.235 -0.5269 -0.0634  0.3943
 5107SOL     OW19615   4.085   0.296   3.645  1.2570 -0.0398  0.4529
 5107SOL    HW119616   4.116   0.268   3.731 -0.4152 -1.1757  0.7209
 5107SOL    HW219617   4.132   0.240   3.583  2.2353  0.5684  0.6431
 5107SOL     MW19618   4.095   0.285   3.648  1.1683 -0.1074  0.5116
 5108SOL     OW19619   3.213   4.887   4.122  0.3246 -0.3523  0.4715
 5108SOL    HW119620   3.277   4.825   4.088  1.0092 -0.1027  1.2888
 5108SOL    HW219621   3.246   4.973   4.097  0.3985 -0.2140  1.0199
 5108SOL     MW19622   3.225   4.890   4.115  0.4220 -0.3028  0.6461
 5109SOL     OW19623   1.851   3.141   1.709  0.3839  0.1108  0.3320
 5109SOL    HW119624   1.770   3.171   1.750 -1.2709  0.0397 -2.7366
 5109SOL    HW219625   1.840   3.046   1.701  0.5449  0.1553 -0.5113
 5109SOL     MW19626   1.839   3.132   1.713  0.1926  0.1073 -0.1689
 5110SOL     OW19627   4.860   5.880   2.329  1.0168 -0.8137 -0.4741
 5110SOL    HW119628   4.871   5.966   2.369  2.1919 -1.3684  0.4379
 5110SOL    HW219629   4.775   5.849   2.360  1.6795 -1.0161  1.2000
 5110SOL     MW19630   4.851   5.887   2.338  1.2527 -0.9103 -0.1431
 5111SOL     OW19631   5.010   4.388   4.888  0.6884 -0.4269 -0.9293
 5111SOL    HW119632   4.945   4.449   4.921  0.8490  0.7464 -2.7542
 5111SOL    HW219633   5.019   4.322   4.957 -2.4232 -0.5975 -0.6597
 5111SOL     MW19634   5.003   4.387   4.901  0.3109 -0.2985 -1.1282
 5112SOL     OW19635   2.103   2.395   5.810  0.1896 -0.0563 -0.1532
 5112SOL    HW119636   2.050   2.318   5.827  1.7548 -0.8020  1.5411
 5112SOL    HW219637   2.136   2.422   5.896 -0.7123  2.8221 -0.6370
 5112SOL     MW19638   2.101   2.389   5.823  0.2744  0.2165  0.0018
 5113SOL     OW19639   5.885   5.626   5.199 -0.5608  0.1798  0.3769
 5113SOL    HW119640   5.899   5.692   5.267 -2.2156  1.1379 -0.1632
 5113SOL    HW219641   5.864   5.678   5.120 -0.8420 -0.9702 -0.3125
 5113SOL     MW19642   5.884   5.641   5.197 -0.8082  0.1554  0.2193
 5114SOL     OW19643   2.820   0.715   1.316  0.9883 -0.7342 -0.5214
 5114SOL    HW119644   2.828   0.754   1.229 -0.3441 -1.7956 -1.1299
 5114SOL    HW219645   2.865   0.776   1.374  2.2222 -0.2097 -2.0087
 5114SOL     MW19646   2.827   0.728   1.313  0.9756 -0.8030 -0.7898
 5115SOL     OW19647   2.870   2.612   2.551 -0.3140  0.1427  0.1341
 5115SOL    HW119648   2.915   2.541   2.597 -1.7410 -0.2367  0.9630
 5115SOL    HW219649   2.917   2.691   2.577  0.0734 -0.2805  0.7437
 5115SOL     MW19650   2.882   2.613   2.560 -0.4473  0.0396  0.3183
 5116SOL     OW19651   4.080   1.637   0.828  0.2194  0.3192  0.0872
 5116SOL    HW119652   4.019   1.568   0.854  0.7463  0.4654  1.7204
 5116SOL    HW219653   4.121   1.666   0.909 -1.9900  4.5107 -0.1622
 5116SOL     MW19654   4.078   1.632   0.841  0.0043  0.8745  0.2643
 5117SOL     OW19655   1.653   5.681   2.086 -0.0216  0.2653 -0.0090
 5117SOL    HW119656   1.717   5.616   2.056 -0.1881 -0.0915  0.4046
 5117SOL    HW219657   1.662   5.753   2.024 -0.6784 -0.6520 -1.1766
 5117SOL     MW19658   1.663   5.682   2.074 -0.1271  0.1025 -0.1056
 5118SOL     OW19659   0.362   5.762   3.544 -0.1642  0.0521 -0.3098
 5118SOL    HW119660   0.387   5.674   3.514 -2.9514 -0.6667 -0.6477
 5118SOL    HW219661   0.313   5.799   3.471 -0.5106  1.2173  0.5121
 5118SOL     MW19662   0.359   5.755   3.531 -0.5653  0.1092 -0.2480
 5119SOL     OW19663   5.295   2.213   4.581  0.0976 -0.2693 -0.0207
 5119SOL    HW119664   5.314   2.193   4.672 -1.1799 -0.7762  0.1385
 5119SOL    HW219665   5.200   2.217   4.576  0.1339 -0.8208 -1.4537
 5119SOL     MW19666   5.285   2.211   4.592 -0.0615 -0.4051 -0.1836
 5120SOL     OW19667   1.972   3.219   4.050  0.4958 -0.6988 -0.8574
 5120SOL    HW119668   2.066   3.230   4.033  0.4652 -0.0992 -0.6433
 5120SOL    HW219669   1.929   3.277   3.987  0.3589  1.0043  0.7699
 5120SOL     MW19670   1.979   3.228   4.040  0.4745 -0.4041 -0.6218
 5121SOL     OW19671   3.503   1.504   0.126 -0.1327  0.4290 -0.3144
 5121SOL    HW119672   3.561   1.446   0.175  0.5474  1.0917 -0.3037
 5121SOL    HW219673   3.561   1.546   0.062 -0.4072  1.8093  0.3231
 5121SOL     MW19674   3.518   1.502   0.124 -0.0811  0.6906 -0.2315
 5122SOL     OW19675   3.533   3.982   1.542 -0.3909 -0.0714  0.0150
 5122SOL    HW119676   3.598   4.016   1.480 -0.9429 -0.7511 -0.9599
 5122SOL    HW219677   3.527   3.888   1.521 -1.0744 -0.1731  0.6542
 5122SOL     MW19678   3.540   3.974   1.531 -0.5491 -0.1717 -0.0279
 5123SOL     OW19679   2.767   5.826   0.600 -0.4837 -0.2840  0.2315
 5123SOL    HW119680   2.682   5.867   0.616 -0.8844 -1.3216  0.8226
 5123SOL    HW219681   2.819   5.894   0.557 -1.3220  0.6422  0.6648
 5123SOL     MW19682   2.762   5.840   0.597 -0.6421 -0.2980  0.3626
 5124SOL     OW19683   3.378   2.822   4.304  0.7830  0.3655  0.4343
 5124SOL    HW119684   3.328   2.743   4.323 -1.2402  1.2356 -1.0676
 5124SOL    HW219685   3.378   2.828   4.209  2.1756  1.4015  0.4858
 5124SOL     MW19686   3.371   2.813   4.295  0.7017  0.6094  0.2484
 5125SOL     OW19687   5.109   1.098   0.237 -0.4223 -0.2477  0.2696
 5125SOL    HW119688   5.072   1.152   0.166  0.8699  0.1983 -0.0685
 5125SOL    HW219689   5.110   1.156   0.313 -1.2374 -0.5390  0.5125
 5125SOL     MW19690   5.104   1.113   0.237 -0.3610 -0.2278  0.2574
 5126SOL     OW19691   5.130   4.988   1.388 -0.6275 -0.2304 -0.3419
 5126SOL    HW119692   5.155   5.031   1.470 -0.3447  0.4040 -0.7645
 5126SOL    HW219693   5.213   4.975   1.341 -0.7688 -0.7576 -0.4527
 5126SOL     MW19694   5.144   4.992   1.393 -0.6094 -0.2165 -0.4101
 5127SOL     OW19695   3.459   1.498   2.531  0.4430 -0.0153  0.8000
 5127SOL    HW119696   3.375   1.452   2.521  0.0081  0.5851  1.6399
 5127SOL    HW219697   3.523   1.437   2.496 -0.5439  0.2904 -1.6369
 5127SOL     MW19698   3.456   1.484   2.525  0.2611  0.1007  0.5956
 5128SOL     OW19699   1.794   2.874   1.782 -0.2839 -0.7172 -0.2557
 5128SOL    HW119700   1.715   2.872   1.836  0.4303 -0.1907  0.8052
 5128SOL    HW219701   1.768   2.828   1.702 -1.5444 -0.9130  0.2458
 5128SOL     MW19702   1.780   2.868   1.778 -0.3538 -0.6750 -0.0558
 5129SOL     OW19703   5.832   4.654   0.058 -0.6275  0.2588 -0.4669
 5129SOL    HW119704   5.893   4.627  -0.010 -1.5960  0.3541 -1.3756
 5129SOL    HW219705   5.761   4.697   0.011 -1.3227  0.2904  0.5998
 5129SOL     MW19706   5.831   4.656   0.044 -0.8402  0.2751 -0.4467
 5130SOL     OW19707   2.682   2.049   4.207  0.2286 -0.0539  0.1498
 5130SOL    HW119708   2.691   2.077   4.299 -0.9995  0.3364  0.1723
 5130SOL    HW219709   2.596   2.083   4.181  0.8816  0.4492 -1.3735
 5130SOL     MW19710   2.672   2.057   4.216  0.1547  0.0606 -0.0424
 5131SOL     OW19711   2.152   4.731   5.078 -0.5964  0.4375 -0.2231
 5131SOL    HW119712   2.058   4.734   5.060 -0.3570 -1.1004 -1.7663
 5131SOL    HW219713   2.168   4.642   5.110  0.4958  0.4055 -0.8419
 5131SOL     MW19714   2.142   4.720   5.080 -0.4258  0.2365 -0.5002
 5132SOL     OW19715   4.607   4.278   2.967  0.2937  0.9691  0.0104
 5132SOL    HW119716   4.702   4.278   2.980  0.3829 -0.0501 -0.5387
 5132SOL    HW219717   4.583   4.370   2.963  1.0971  1.2496  1.3037
 5132SOL     MW19718   4.616   4.290   2.968  0.4077  0.8745  0.1059
 5133SOL     OW19719   4.770   2.488   5.033 -0.2283  0.2509  0.2559
 5133SOL    HW119720   4.727   2.477   5.118 -1.4070 -0.7483 -0.4440
 5133SOL    HW219721   4.708   2.539   4.982  0.4270  0.7383 -0.0501
 5133SOL     MW19722   4.757   2.493   5.038 -0.2956  0.1853  0.1273
 5134SOL     OW19723   0.158   5.842   1.279  0.3328  0.0449  0.4271
 5134SOL    HW119724   0.113   5.777   1.225  1.3165  1.3884 -2.0845
 5134SOL    HW219725   0.229   5.874   1.224  0.1720  2.9034  1.7640
 5134SOL     MW19726   0.161   5.838   1.265  0.4381  0.5822  0.2768
 5135SOL     OW19727   3.006   4.566   4.538  0.1237 -0.2605  0.4126
 5135SOL    HW119728   3.061   4.626   4.588  1.6477 -0.9512 -0.3986
 5135SOL    HW219729   3.042   4.568   4.449  0.0931 -2.2288  0.3319
 5135SOL     MW19730   3.017   4.574   4.533  0.3150 -0.6013  0.2985
 5136SOL     OW19731   2.312   3.840   0.236  0.0694  0.5195 -0.0078
 5136SOL    HW119732   2.382   3.825   0.173  1.3597 -0.3868  1.5849
 5136SOL    HW219733   2.267   3.756   0.242 -0.4928  0.8058 -0.2557
 5136SOL     MW19734   2.316   3.828   0.229  0.1626  0.4399  0.1643
 5137SOL     OW19735   0.093   3.346   3.988 -0.2459  0.5540  0.4834
 5137SOL    HW119736   0.106   3.255   4.014  0.5684  0.6227  0.3139
 5137SOL    HW219737  -0.001   3.361   3.999 -0.6148 -0.7173 -0.8291
 5137SOL     MW19738   0.082   3.337   3.993 -0.1888  0.4001  0.2935
 5138SOL     OW19739   5.471   2.655   5.147 -0.0827 -0.2722  0.3048
 5138SOL    HW119740   5.527   2.603   5.089 -0.2455 -0.2884  0.1619
 5138SOL    HW219741   5.407   2.696   5.089  0.9892  1.3335  0.2113
 5138SOL     MW19742   5.470   2.654   5.132  0.0334 -0.0687  0.2747
 5139SOL     OW19743   2.614   5.612   4.052 -0.2926 -0.3103 -0.7197
 5139SOL    HW119744   2.700   5.643   4.080 -1.3445  2.1810 -0.0762
 5139SOL    HW219745   2.584   5.557   4.124  0.0208  0.2732 -0.1356
 5139SOL     MW19746   2.621   5.609   4.065 -0.3872  0.0830 -0.5627
 5140SOL     OW19747   4.104   2.222   2.411  1.0732  0.4902  0.3511
 5140SOL    HW119748   4.130   2.309   2.439 -0.5331  1.1792 -0.2512
 5140SOL    HW219749   4.107   2.225   2.316 -0.0902  0.2502  0.2939
 5140SOL     MW19750   4.107   2.233   2.403  0.7181  0.5479  0.2668
 5141SOL     OW19751   4.914   5.137   1.644  0.1843 -0.3753  0.0361
 5141SOL    HW119752   4.861   5.182   1.710 -0.8653 -0.7789 -0.5212
 5141SOL    HW219753   4.876   5.162   1.560  2.6980  1.6726 -0.5599
 5141SOL     MW19754   4.902   5.146   1.642  0.3719 -0.1655 -0.1116
 5142SOL     OW19755   5.904   2.941   0.415  0.4843  0.3881 -0.1418
 5142SOL    HW119756   5.946   2.875   0.469 -2.1404 -1.1579  0.1204
 5142SOL    HW219757   5.876   3.008   0.477 -1.2505 -0.6938  0.2898
 5142SOL     MW19758   5.906   2.941   0.430 -0.0739  0.0517 -0.0530
 5143SOL     OW19759   0.913   1.034   5.018  0.4063  0.2418 -0.0835
 5143SOL    HW119760   0.869   1.089   5.083 -0.1919 -0.3546  0.0167
 5143SOL    HW219761   0.842   0.994   4.968  0.8496 -0.0721 -0.4682
 5143SOL     MW19762   0.899   1.036   5.020  0.3864  0.1252 -0.1197
 5144SOL     OW19763   4.796   4.231   5.197  0.1164 -0.3164 -0.1130
 5144SOL    HW119764   4.736   4.159   5.179  0.7057 -0.7223 -0.5193
 5144SOL    HW219765   4.866   4.220   5.131  0.1911  0.6433 -0.2047
 5144SOL     MW19766   4.797   4.221   5.186  0.2017 -0.2460 -0.1769
 5145SOL     OW19767   2.103   1.717   3.173 -0.0005  0.2476 -0.2197
 5145SOL    HW119768   2.101   1.625   3.199  0.6598 -0.2429 -1.8796
 5145SOL    HW219769   2.157   1.759   3.240  0.8880 -0.8340 -0.2454
 5145SOL     MW19770   2.109   1.710   3.185  0.1976  0.0464 -0.4354
 5146SOL     OW19771   5.206   1.021   0.591 -0.7766  0.3365 -0.3578
 5146SOL    HW119772   5.224   0.992   0.681 -1.0755  1.1301 -0.0375
 5146SOL    HW219773   5.290   1.015   0.547 -0.0932  2.2197  0.6270
 5146SOL     MW19774   5.219   1.017   0.597 -0.7272  0.6791 -0.1907
 5147SOL     OW19775   0.613   1.057   5.157 -0.2289  0.2244 -0.2595
 5147SOL    HW119776   0.635   1.147   5.181  1.4932 -0.1224 -0.4628
 5147SOL    HW219777   0.692   1.007   5.176 -1.2643 -1.3063  0.1164
 5147SOL     MW19778   0.626   1.062   5.162 -0.1410 -0.0159 -0.2370
 5148SOL     OW19779   5.772   3.001   5.424 -0.3844  0.0344 -0.1203
 5148SOL    HW119780   5.716   2.930   5.392 -0.4531  0.4550 -0.9137
 5148SOL    HW219781   5.851   2.995   5.371 -1.6596  2.5656 -2.4033
 5148SOL     MW19782   5.774   2.991   5.413 -0.5569  0.4120 -0.5140
 5149SOL     OW19783   2.523   5.506   0.130 -0.0720  0.6104  0.7039
 5149SOL    HW119784   2.463   5.580   0.123  0.5668  0.8677 -2.3553
 5149SOL    HW219785   2.509   5.455   0.050  2.5628 -0.2742  0.7598
 5149SOL     MW19786   2.513   5.509   0.119  0.3471  0.5302  0.3195
 5150SOL     OW19787   1.736   4.159   2.542  0.3149  0.3550  0.2941
 5150SOL    HW119788   1.690   4.172   2.625  1.0344 -2.1579  1.1233
 5150SOL    HW219789   1.827   4.185   2.561  0.7260 -1.2582  0.6505
 5150SOL     MW19790   1.742   4.164   2.555  0.4597 -0.1726  0.4458
 5151SOL     OW19791   0.294   3.459   1.663 -0.1615 -0.4137 -0.2346
 5151SOL    HW119792   0.214   3.408   1.670 -0.3928 -0.2352 -1.4985
 5151SOL    HW219793   0.365   3.395   1.672 -0.4361 -0.6443  0.3172
 5151SOL     MW19794   0.293   3.444   1.665 -0.2263 -0.4206 -0.3256
 5152SOL     OW19795   2.756   2.652   4.898 -0.4346 -0.0895  0.1879
 5152SOL    HW119796   2.830   2.657   4.959 -1.3063  0.6204  1.2057
 5152SOL    HW219797   2.757   2.562   4.866  1.1710  0.0436 -0.2045
 5152SOL     MW19798   2.766   2.641   4.902 -0.3405  0.0184  0.2680
 5153SOL     OW19799   0.804   0.227   1.157  0.5188  0.2846 -0.4056
 5153SOL    HW119800   0.760   0.148   1.189  3.3119 -0.8579  0.8407
 5153SOL    HW219801   0.767   0.298   1.210 -0.1388 -0.5672  0.3080
 5153SOL     MW19802   0.794   0.226   1.168  0.7921  0.0293 -0.1546
 5154SOL     OW19803   3.408   5.279   0.040 -0.6832  0.0876  0.3334
 5154SOL    HW119804   3.502   5.262   0.033 -0.7680  0.1947 -1.1833
 5154SOL    HW219805   3.398   5.329   0.121  0.2741 -2.0173  1.7793
 5154SOL     MW19806   3.418   5.283   0.050 -0.5715 -0.1678  0.3244
 5155SOL     OW19807   1.098   5.654   4.284 -0.2162  0.1526  0.2665
 5155SOL    HW119808   1.011   5.672   4.247 -1.8459 -0.1052  3.7325
 5155SOL    HW219809   1.096   5.561   4.306  1.7330 -0.3312 -1.5117
 5155SOL     MW19810   1.087   5.645   4.282 -0.1752  0.0577  0.4826
 5156SOL     OW19811   2.807   0.956   3.423  0.3531  0.1602  0.3338
 5156SOL    HW119812   2.762   1.015   3.485  0.5573 -0.0239  0.6553
 5156SOL    HW219813   2.822   0.876   3.473 -2.9237 -1.4273 -1.0859
 5156SOL     MW19814   2.803   0.954   3.438 -0.0403 -0.0665  0.1931
 5157SOL     OW19815   3.384   1.625   3.151 -0.5608  0.0935 -0.2092
 5157SOL    HW119816   3.357   1.707   3.109  1.3513 -0.1242 -1.9575
 5157SOL    HW219817   3.313   1.564   3.131 -1.3661  0.9615 -0.0340
 5157SOL     MW19818   3.371   1.628   3.143 -0.4189  0.1768 -0.4108
 5158SOL     OW19819   2.429   0.469   4.817 -0.3191 -0.2786  0.4810
 5158SOL    HW119820   2.506   0.498   4.866  0.3640  0.3892 -0.9530
 5158SOL    HW219821   2.464   0.405   4.754 -0.6702  1.1867 -1.2211
 5158SOL     MW19822   2.444   0.464   4.815 -0.2768 -0.0056  0.0796
 5159SOL     OW19823   4.988   4.291   5.526  0.1934 -0.4637  0.4377
 5159SOL    HW119824   5.032   4.355   5.583  1.7573  0.3886 -1.6862
 5159SOL    HW219825   4.925   4.343   5.475  0.2271 -0.9066 -0.0605
 5159SOL     MW19826   4.985   4.306   5.527  0.3986 -0.4115  0.1020
 5160SOL     OW19827   0.507   1.677   0.506 -0.1413 -0.0794  0.0932
 5160SOL    HW119828   0.455   1.613   0.458 -1.5917  1.5208 -0.5369
 5160SOL    HW219829   0.443   1.720   0.564  0.9602  0.2382  1.0813
 5160SOL     MW19830   0.492   1.675   0.507 -0.1860  0.1662  0.1389
 5161SOL     OW19831   0.201   0.304   5.437 -0.1896  0.2725 -0.2023
 5161SOL    HW119832   0.287   0.287   5.398  0.8730 -0.3945  2.3438
 5161SOL    HW219833   0.201   0.398   5.454 -0.2335  0.3817 -0.7772
 5161SOL     MW19834   0.212   0.314   5.434 -0.0592  0.2011  0.0501
 5162SOL     OW19835   2.827   4.804   2.647  0.5714 -0.7652  0.5117
 5162SOL    HW119836   2.822   4.892   2.685  1.6440 -0.7380  0.6023
 5162SOL    HW219837   2.880   4.815   2.568 -2.2991 -0.6710 -1.4709
 5162SOL     MW19838   2.834   4.817   2.641  0.3414 -0.7496  0.2694
 5163SOL     OW19839   4.809   5.258   4.886  0.3686 -0.2174 -0.0917
 5163SOL    HW119840   4.754   5.335   4.899 -0.3030 -0.6023 -0.6503
 5163SOL    HW219841   4.899   5.292   4.892  0.0776  0.5231  0.1449
 5163SOL     MW19842   4.814   5.273   4.888  0.2456 -0.1717 -0.1330
 5164SOL     OW19843   0.983   2.926   4.189 -0.1892  0.0839 -0.2871
 5164SOL    HW119844   0.943   2.995   4.242  1.1198  1.6383 -1.2733
 5164SOL    HW219845   1.059   2.898   4.240  0.8995  1.3725 -1.1566
 5164SOL     MW19846   0.987   2.932   4.202  0.1177  0.4478 -0.5250
 5165SOL     OW19847   0.020   5.894   4.085  0.3204  0.7710 -0.4652
 5165SOL    HW119848   0.012   5.799   4.091 -1.7780  1.0354  2.1996
 5165SOL    HW219849  -0.069   5.927   4.097  1.2693  3.1205  0.5997
 5165SOL     MW19850   0.008   5.886   4.088  0.1736  1.1058  0.0119
 5166SOL     OW19851   0.351   3.625   1.458  0.2815 -0.2141 -0.3700
 5166SOL    HW119852   0.275   3.676   1.430  0.5322  1.4961  1.9274
 5166SOL    HW219853   0.322   3.581   1.538  1.6623  0.3445  0.4523
 5166SOL     MW19854   0.338   3.626   1.465  0.4903  0.0763  0.0293
 5167SOL     OW19855   3.171   4.506   0.415  0.4439 -0.4785 -0.4623
 5167SOL    HW119856   3.174   4.514   0.511  2.1573 -2.4317 -0.3074
 5167SOL    HW219857   3.149   4.414   0.400 -0.0519 -0.1164 -1.9543
 5167SOL     MW19858   3.169   4.495   0.426  0.5996 -0.6824 -0.6335
 5168SOL     OW19859   3.209   3.091   4.156  0.1751 -0.1433  0.4447
 5168SOL    HW119860   3.200   3.003   4.121 -1.4800 -0.3664  1.3931
 5168SOL    HW219861   3.302   3.111   4.146  0.6992 -2.2510  0.8503
 5168SOL     MW19862   3.220   3.082   4.150  0.0300 -0.4416  0.6185
 5169SOL     OW19863   1.889   4.508   5.247 -0.1270 -0.1345  0.2751
 5169SOL    HW119864   1.913   4.551   5.329  1.4690 -0.9691  0.2707
 5169SOL    HW219865   1.972   4.498   5.201 -1.1711  1.6797 -2.1054
 5169SOL     MW19866   1.903   4.512   5.251 -0.0564 -0.0091 -0.0300
 5170SOL     OW19867   3.599   3.647   2.428 -0.2149 -0.3620  0.4013
 5170SOL    HW119868   3.614   3.741   2.429 -1.5734 -0.1384  1.1295
 5170SOL    HW219869   3.572   3.627   2.339  2.2960 -0.4461 -0.3720
 5170SOL     MW19870   3.597   3.656   2.417 -0.0675 -0.3443  0.3955
 5171SOL     OW19871   0.472   5.668   4.171  0.0776  0.2347  0.3848
 5171SOL    HW119872   0.419   5.666   4.091  1.4694  2.4227 -0.6397
 5171SOL    HW219873   0.510   5.580   4.176  0.6109  0.2979 -1.8126
 5171SOL     MW19874   0.470   5.656   4.161  0.3240  0.5231 -0.0277
 5172SOL     OW19875   3.526   3.114   0.094 -0.0132 -0.3162  0.9541
 5172SOL    HW119876   3.484   3.038   0.134 -0.9793  0.3631  1.2737
 5172SOL    HW219877   3.454   3.160   0.050  1.0680 -1.1661 -1.7897
 5172SOL     MW19878   3.511   3.111   0.094  0.0014 -0.3378  0.6438
 5173SOL     OW19879   0.585   5.917   5.422 -0.0226  0.0242  0.3686
 5173SOL    HW119880   0.566   5.833   5.464 -3.2644 -0.4603 -1.8646
 5173SOL    HW219881   0.586   5.980   5.493 -2.3445 -1.2197  1.5676
 5173SOL     MW19882   0.583   5.914   5.436 -0.7348 -0.1969  0.2360
 5174SOL     OW19883   0.303   1.980   3.609 -0.0194  0.3762  0.3282
 5174SOL    HW119884   0.285   1.941   3.695  1.1116  0.1651  0.4657
 5174SOL    HW219885   0.367   1.923   3.569  3.0496  3.0101  1.2609
 5174SOL     MW19886   0.309   1.968   3.615  0.5183  0.6863  0.4652
 5175SOL     OW19887   5.527   4.378   1.009  0.1046 -0.7060 -0.5819
 5175SOL    HW119888   5.459   4.317   1.038  0.0428 -0.3842 -0.0325
 5175SOL    HW219889   5.483   4.434   0.945 -0.4489  0.1885  0.5589
 5175SOL     MW19890   5.512   4.378   1.005  0.0267 -0.5503 -0.3656
 5176SOL     OW19891   3.148   5.688   5.394 -0.1150 -0.5894 -0.1066
 5176SOL    HW119892   3.153   5.767   5.449  0.7673 -1.5897  1.2933
 5176SOL    HW219893   3.137   5.616   5.457  1.5058 -1.8196 -1.2033
 5176SOL     MW19894   3.147   5.689   5.409  0.2053 -0.8750 -0.0677
 5177SOL     OW19895   0.215   2.978   2.716 -0.3820 -0.1536  0.2032
 5177SOL    HW119896   0.296   3.025   2.735 -0.3969 -0.1128  0.1636
 5177SOL    HW219897   0.176   2.963   2.802  0.5053 -1.6618  0.3766
 5177SOL     MW19898   0.221   2.982   2.730 -0.2704 -0.3417  0.2203
 5178SOL     OW19899   2.256   5.032   1.866  0.0353 -0.2852  0.1290
 5178SOL    HW119900   2.216   4.991   1.943 -0.8711 -1.4536 -0.9534
 5178SOL    HW219901   2.204   5.111   1.851  0.3833  0.0915  0.8640
 5178SOL     MW19902   2.244   5.037   1.874 -0.0360 -0.3862  0.0845
 5179SOL     OW19903   3.149   3.710   2.289 -0.1559 -0.2718 -0.2911
 5179SOL    HW119904   3.225   3.768   2.285 -1.4203  1.4777  0.2058
 5179SOL    HW219905   3.127   3.691   2.198  0.7222 -0.5843 -0.4383
 5179SOL     MW19906   3.156   3.715   2.277 -0.2053 -0.0880 -0.2463
 5180SOL     OW19907   4.751   0.223   0.346  0.5617 -1.0290 -0.2092
 5180SOL    HW119908   4.738   0.313   0.377  0.3040 -0.6010 -1.5570
 5180SOL    HW219909   4.673   0.177   0.375  0.9921 -0.9858  1.0594
 5180SOL     MW19910   4.739   0.229   0.354  0.5836 -0.9687 -0.2193
 5181SOL     OW19911   3.517   1.699   4.299 -0.3192  0.0359 -0.4181
 5181SOL    HW119912   3.472   1.625   4.340 -0.6349  0.7154  0.4961
 5181SOL    HW219913   3.522   1.676   4.206  0.5634 -1.6184  0.0217
 5181SOL     MW19914   3.512   1.687   4.292 -0.2465 -0.0890 -0.2451
 5182SOL     OW19915   0.928   3.320   3.647  0.0624 -0.0220  0.2528
 5182SOL    HW119916   1.013   3.276   3.641 -0.8786 -1.5614 -3.0463
 5182SOL    HW219917   0.900   3.306   3.737  1.8860 -2.2051  0.5310
 5182SOL     MW19918   0.936   3.313   3.658  0.1753 -0.4988 -0.1342
 5183SOL     OW19919   1.552   0.704   3.234  0.4784  0.1773 -0.0134
 5183SOL    HW119920   1.553   0.741   3.146  1.6089 -0.0373 -0.0974
 5183SOL    HW219921   1.482   0.751   3.280 -1.2198 -0.8285 -1.5030
 5183SOL     MW19922   1.543   0.715   3.229  0.4057  0.0211 -0.2148
 5184SOL     OW19923   4.218   5.640   0.604 -0.0022  0.2899 -0.1710
 5184SOL    HW119924   4.301   5.596   0.587  0.2262 -0.1780  2.0106
 5184SOL    HW219925   4.220   5.719   0.549  2.4615  0.9465  0.8125
 5184SOL     MW19926   4.229   5.645   0.595  0.3419  0.3138  0.2342
 5185SOL     OW19927   0.139   1.837   4.935  0.1833  0.0915  0.2461
 5185SOL    HW119928   0.186   1.910   4.975 -1.0236  1.5316 -0.9098
 5185SOL    HW219929   0.125   1.775   5.007 -0.0511  1.6616  1.5695
 5185SOL     MW19930   0.143   1.838   4.949 -0.0012  0.4770  0.2680
 5186SOL     OW19931   2.150   0.088   1.651 -0.0974  0.0933 -0.0004
 5186SOL    HW119932   2.122   0.095   1.560  1.0452 -1.6732 -0.5134
 5186SOL    HW219933   2.183   0.175   1.673  1.1820  0.0911 -1.8183
 5186SOL     MW19934   2.151   0.100   1.642  0.2124 -0.1331 -0.2989
 5187SOL     OW19935   0.674   1.901   3.864 -0.4692  0.2401 -0.3819
 5187SOL    HW119936   0.591   1.911   3.912 -0.4550 -1.6795  0.0614
 5187SOL    HW219937   0.685   1.807   3.855  1.1977  0.5174 -1.2956
 5187SOL     MW19938   0.664   1.891   3.869 -0.2540  0.0297 -0.4423
 5188SOL     OW19939   2.818   1.952   3.124 -0.3544 -0.3758  0.2550
 5188SOL    HW119940   2.860   1.877   3.082 -0.2693 -1.0675  1.5467
 5188SOL    HW219941   2.805   1.925   3.215 -0.4918  1.1041  0.6948
 5188SOL     MW19942   2.822   1.939   3.131 -0.3610 -0.2749  0.4766
 5189SOL     OW19943   0.168   0.880   3.073 -0.2090 -0.3208  0.4172
 5189SOL    HW119944   0.199   0.800   3.030  0.5339  0.2156 -0.0469
 5189SOL    HW219945   0.160   0.856   3.165 -2.7823 -1.7793 -0.1333
 5189SOL     MW19946   0.171   0.867   3.079 -0.4433 -0.4389  0.2873
 5190SOL     OW19947   0.161   1.892   5.709 -0.4112 -0.2337  0.4393
 5190SOL    HW119948   0.082   1.839   5.699 -0.0423 -0.9880  1.4572
 5190SOL    HW219949   0.169   1.939   5.626 -1.4674 -0.7736  0.0245
 5190SOL     MW19950   0.152   1.891   5.697 -0.4991 -0.3994  0.5164
 5191SOL     OW19951   0.580   0.724   4.680 -0.2999 -0.4001 -0.0022
 5191SOL    HW119952   0.487   0.701   4.687 -0.2304 -1.0764 -1.1583
 5191SOL    HW219953   0.620   0.647   4.640  0.7611 -0.1034  0.4866
 5191SOL     MW19954   0.573   0.711   4.676 -0.1552 -0.4488 -0.0882
 5192SOL     OW19955   0.930   5.724   5.727 -0.0368 -0.0211 -0.2150
 5192SOL    HW119956   0.973   5.806   5.750  0.3733 -0.3969  0.3628
 5192SOL    HW219957   0.964   5.702   5.640  0.7684 -0.2001  0.1440
 5192SOL     MW19958   0.940   5.731   5.719  0.1188 -0.0920 -0.0954
 5193SOL     OW19959   3.766   0.471   2.672  0.1036  0.3605  0.1230
 5193SOL    HW119960   3.716   0.488   2.592 -1.0261  3.3131  1.3785
 5193SOL    HW219961   3.736   0.385   2.701 -1.2510  0.3050 -1.3453
 5193SOL     MW19962   3.756   0.462   2.666 -0.2143  0.7313  0.0956
 5194SOL     OW19963   4.832   4.645   3.322 -0.3176  0.3378  0.7328
 5194SOL    HW119964   4.742   4.650   3.290 -0.3458  0.3672  0.8180
 5194SOL    HW219965   4.876   4.584   3.262  0.6790  3.4797 -1.8596
 5194SOL     MW19966   4.826   4.638   3.311 -0.1941  0.7439  0.4120
 5195SOL     OW19967   2.192   1.590   1.483 -0.3688 -0.6900  0.4779
 5195SOL    HW119968   2.216   1.498   1.487 -1.6681 -1.0042  1.4019
 5195SOL    HW219969   2.202   1.622   1.572  0.3316  0.1384  0.1146
 5195SOL     MW19970   2.196   1.583   1.495 -0.4456 -0.6243  0.5497
 5196SOL     OW19971   4.240   1.044   1.158 -0.2572  0.0742 -0.2936
 5196SOL    HW119972   4.263   1.137   1.163  0.1788 -0.0725  0.5496
 5196SOL    HW219973   4.147   1.044   1.136  0.2495  0.6918 -2.6502
 5196SOL     MW19974   4.231   1.056   1.156 -0.1364  0.1345 -0.4873
 5197SOL     OW19975   1.863   0.980   0.485  0.4319 -0.3478  0.2356
 5197SOL    HW119976   1.828   0.930   0.559  0.7478  0.2253  0.7787
 5197SOL    HW219977   1.956   0.989   0.504  0.4743 -0.0094 -0.1264
 5197SOL     MW19978   1.870   0.974   0.497  0.4778 -0.2311  0.2587
 5198SOL     OW19979   0.715   0.363   3.435 -0.0934 -0.0415 -0.1530
 5198SOL    HW119980   0.681   0.452   3.442  1.1313  0.7360 -3.3399
 5198SOL    HW219981   0.641   0.311   3.406 -0.4391  0.1958  0.2951
 5198SOL     MW19982   0.701   0.368   3.432  0.0191  0.0884 -0.5038
 5199SOL     OW19983   2.950   0.470   2.012  0.7094 -0.0407  0.3814
 5199SOL    HW119984   2.997   0.484   1.930  0.6959 -1.9893  0.0222
 5199SOL    HW219985   3.007   0.412   2.063 -0.4106 -0.8813  0.7103
 5199SOL     MW19986   2.963   0.464   2.008  0.5641 -0.3978  0.3774
 5200SOL     OW19987   3.632   5.284   2.091 -0.4401 -0.0135  0.1957
 5200SOL    HW119988   3.605   5.212   2.035 -0.0779  0.0278 -0.0316
 5200SOL    HW219989   3.727   5.287   2.084 -0.5505  1.3627 -0.8976
 5200SOL     MW19990   3.641   5.275   2.083 -0.4079  0.1678  0.0267
 5201SOL     OW19991   3.294   5.293   1.702 -0.8859 -0.0589 -0.1901
 5201SOL    HW119992   3.352   5.369   1.700 -1.0767  0.0825 -0.4168
 5201SOL    HW219993   3.341   5.227   1.752 -0.4059 -0.0478 -0.6249
 5201SOL     MW19994   3.307   5.295   1.708 -0.8488 -0.0396 -0.2747
 5202SOL     OW19995   2.393   1.776   4.323 -0.0454 -0.4609  0.1294
 5202SOL    HW119996   2.350   1.789   4.238 -0.0828 -1.0417  0.0610
 5202SOL    HW219997   2.328   1.803   4.387 -0.3604 -0.9446  0.0106
 5202SOL     MW19998   2.379   1.781   4.320 -0.0904 -0.5972  0.1054
 5203SOL     OW19999   1.681   3.793   1.830  0.1804 -0.5912  0.3244
 5203SOL    HW120000   1.631   3.760   1.904 -0.0006  2.1516  1.5191
 5203SOL    HW220001   1.766   3.818   1.867 -0.3980  2.1154 -0.0415
 5203SOL     MW20002   1.685   3.792   1.844  0.0831  0.1066  0.4306
 5204SOL     OW20003   3.474   2.479   4.688 -0.1596  0.4617 -0.5361
 5204SOL    HW120004   3.409   2.485   4.617  0.1679  1.9080 -0.7410
 5204SOL    HW220005   3.498   2.570   4.705  0.3781  0.0584  0.8812
 5204SOL     MW20006   3.468   2.492   4.681 -0.0489  0.5951 -0.3805
 5205SOL     OW20007   2.696   1.035   1.673  0.0730  0.4793  0.4531
 5205SOL    HW120008   2.713   0.961   1.731 -0.0768  1.3485  1.6356
 5205SOL    HW220009   2.715   1.003   1.585 -0.2670 -1.0405  0.9297
 5205SOL     MW20010   2.701   1.022   1.669  0.0105  0.3960  0.6654
 5206SOL     OW20011   2.369   1.650   2.566 -0.6664  0.1649 -1.1730
 5206SOL    HW120012   2.297   1.696   2.524  0.2250  3.0763  0.3243
 5206SOL    HW220013   2.363   1.676   2.658  0.7144 -1.6705 -0.5288
 5206SOL     MW20014   2.359   1.659   2.573 -0.3757  0.3026 -0.8988
 5207SOL     OW20015   1.918   0.078   3.703  0.0267  0.3379  0.1898
 5207SOL    HW120016   1.872   0.096   3.621  0.7030  3.2519  0.4016
 5207SOL    HW220017   1.859   0.112   3.771  1.1480  1.4179  0.6439
 5207SOL     MW20018   1.904   0.084   3.701  0.2569  0.8492  0.2751
 5208SOL     OW20019   3.953   0.650   4.109 -0.8677 -0.1240 -0.0932
 5208SOL    HW120020   3.921   0.589   4.175 -0.6514 -1.1201 -0.8930
 5208SOL    HW220021   4.047   0.655   4.125 -1.0037  0.6417  0.4911
 5208SOL     MW20022   3.961   0.643   4.120 -0.8574 -0.1535 -0.1202
 5209SOL     OW20023   2.714   0.658   2.929  0.5541  0.3713  0.2857
 5209SOL    HW120024   2.795   0.679   2.977  0.9239  0.4230 -0.3560
 5209SOL    HW220025   2.663   0.740   2.931 -1.1524 -0.6772  3.8996
 5209SOL     MW20026   2.718   0.672   2.936  0.3829  0.2437  0.6664
 5210SOL     OW20027   2.069   4.930   5.311  0.6678  0.1133  0.2759
 5210SOL    HW120028   2.026   4.948   5.394  0.1002 -0.0753  0.0220
 5210SOL    HW220029   1.998   4.926   5.247  1.0509 -0.2655 -0.1309
 5210SOL     MW20030   2.055   4.932   5.313  0.6440  0.0405  0.1912
 5211SOL     OW20031   1.199   5.889   2.906  0.0788 -0.0873  0.3878
 5211SOL    HW120032   1.140   5.836   2.959  0.4778 -0.5401  0.3849
 5211SOL    HW220033   1.144   5.922   2.835 -0.7109  1.4371  1.6847
 5211SOL     MW20034   1.185   5.886   2.904  0.0287  0.0496  0.5534
 5212SOL     OW20035   1.478   2.356   0.015 -0.1615 -0.0208  0.6556
 5212SOL    HW120036   1.559   2.330   0.058  1.5903  1.9528 -1.3322
 5212SOL    HW220037   1.468   2.449   0.036  0.0890  0.6781 -2.1200
 5212SOL     MW20038   1.487   2.365   0.024  0.0948  0.3211  0.0458
 5213SOL     OW20039   2.870   2.226   4.432  0.1405 -0.3121  0.3519
 5213SOL    HW120040   2.933   2.162   4.466  0.8586  0.9619  1.4873
 5213SOL    HW220041   2.875   2.299   4.494 -0.2987  1.0602 -1.1854
 5213SOL     MW20042   2.879   2.227   4.444  0.1762  0.0267  0.3004
 5214SOL     OW20043   3.075   1.787   4.938 -0.2246  0.5200  0.4779
 5214SOL    HW120044   3.169   1.803   4.948  0.3083 -0.5013 -2.6013
 5214SOL    HW220045   3.048   1.844   4.867 -2.2898  1.8877  2.2870
 5214SOL     MW20046   3.083   1.796   4.931 -0.4208  0.5643  0.3157
 5215SOL     OW20047   4.775   4.985   5.824  0.2693 -0.6721 -0.6413
 5215SOL    HW120048   4.727   4.936   5.757  0.7209  0.3417 -1.7260
 5215SOL    HW220049   4.800   4.919   5.888  0.5189 -1.8056 -1.8816
 5215SOL     MW20050   4.772   4.970   5.823  0.3591 -0.6881 -0.9389
 5216SOL     OW20051   0.264   5.465   1.874 -0.5414  0.9264  0.5756
 5216SOL    HW120052   0.268   5.556   1.901 -2.9418  0.8143  1.4708
 5216SOL    HW220053   0.190   5.461   1.812 -1.5019 -0.6725  1.7755
 5216SOL     MW20054   0.255   5.476   1.869 -0.9716  0.7076  0.8436
 5217SOL     OW20055   3.650   5.311   3.667  0.3606 -0.5182 -0.8970
 5217SOL    HW120056   3.649   5.396   3.623  1.1894 -0.3840 -0.6557
 5217SOL    HW220057   3.742   5.294   3.685  0.0556 -0.6830  0.5749
 5217SOL     MW20058   3.662   5.320   3.664  0.4275 -0.5226 -0.6773
 5218SOL     OW20059   5.475   4.546   2.243  0.4788 -0.7173  0.3035
 5218SOL    HW120060   5.464   4.450   2.242 -0.7230 -0.5896  0.2096
 5218SOL    HW220061   5.419   4.577   2.171  0.2280  0.1174  0.8561
 5218SOL     MW20062   5.466   4.537   2.233  0.2933 -0.5941  0.3622
 5219SOL     OW20063   2.596   2.622   0.487  0.2281  0.2878  0.2654
 5219SOL    HW120064   2.525   2.681   0.464  0.2965  0.1376 -0.3389
 5219SOL    HW220065   2.643   2.608   0.405 -1.4620 -2.8752 -0.2597
 5219SOL     MW20066   2.593   2.627   0.473  0.0207 -0.1361  0.1208
 5220SOL     OW20067   3.100   0.544   4.809  0.1548 -0.0566  0.1908
 5220SOL    HW120068   3.070   0.453   4.805 -0.8320  0.1388  2.2860
 5220SOL    HW220069   3.193   0.537   4.831  0.2553 -0.5561 -0.3615
 5220SOL     MW20070   3.108   0.532   4.811  0.0415 -0.0955  0.3886
 5221SOL     OW20071   4.650   4.718   3.650 -0.4195  0.2097  0.1689
 5221SOL    HW120072   4.563   4.746   3.680 -1.6249 -1.6854 -1.4070
 5221SOL    HW220073   4.639   4.625   3.631  1.8914  0.0254 -0.3375
 5221SOL     MW20074   4.637   4.710   3.651 -0.2785 -0.0563 -0.0978
 5222SOL     OW20075   3.907   1.902   4.141 -0.3632 -0.2370 -0.3991
 5222SOL    HW120076   3.977   1.926   4.202 -0.0438  0.1027 -0.9009
 5222SOL    HW220077   3.871   1.985   4.111 -0.2520 -0.4022 -0.9880
 5222SOL     MW20078   3.911   1.916   4.145 -0.3080 -0.2146 -0.5393
 5223SOL     OW20079   1.699   1.537   4.396  0.2670  0.0203 -0.1448
 5223SOL    HW120080   1.697   1.629   4.369  0.7035 -0.0137 -0.2891
 5223SOL    HW220081   1.624   1.528   4.455  0.7296  0.6827  0.5596
 5223SOL     MW20082   1.689   1.547   4.400  0.3821  0.1007 -0.0725
 5224SOL     OW20083   1.317   2.887   4.652  0.0292  0.7643 -0.0951
 5224SOL    HW120084   1.376   2.886   4.727 -1.8170 -0.2043  1.3671
 5224SOL    HW220085   1.299   2.795   4.634 -0.0198  1.0159 -1.3506
 5224SOL     MW20086   1.322   2.875   4.659 -0.2134  0.6726 -0.0687
 5225SOL     OW20087   0.626   2.613   1.538  0.1746  0.6205  0.9273
 5225SOL    HW120088   0.546   2.659   1.513  2.0740  1.2971 -4.4822
 5225SOL    HW220089   0.608   2.521   1.517  0.6023  0.6947  0.2261
 5225SOL     MW20090   0.613   2.607   1.532  0.4724  0.7167  0.1451
 5226SOL     OW20091   4.079   1.544   0.238  0.0609 -0.4371  0.5075
 5226SOL    HW120092   4.045   1.623   0.280 -0.6812 -0.5318  0.0942
 5226SOL    HW220093   4.166   1.569   0.206 -0.4657  0.4366 -0.2621
 5226SOL     MW20094   4.086   1.557   0.239 -0.1011 -0.3375  0.3561
 5227SOL     OW20095   1.833   3.421   0.641  0.5789 -0.1499  0.0115
 5227SOL    HW120096   1.840   3.516   0.644 -0.3103 -0.0660 -0.3305
 5227SOL    HW220097   1.751   3.401   0.687  0.7740 -0.7490  0.1092
 5227SOL     MW20098   1.823   3.431   0.647  0.4901 -0.2160 -0.0197
 5228SOL     OW20099   1.391   5.250   3.576  0.3503  0.1891  0.2543
 5228SOL    HW120100   1.310   5.242   3.625  1.1180  0.5230  1.6284
 5228SOL    HW220101   1.458   5.267   3.643  1.6521 -0.7255 -0.7811
 5228SOL     MW20102   1.389   5.251   3.591  0.6152  0.1144  0.2975
 5229SOL     OW20103   0.172   5.430   2.460 -0.0246 -0.0981  0.2920
 5229SOL    HW120104   0.118   5.425   2.539 -0.7212 -3.5904 -0.3248
 5229SOL    HW220105   0.259   5.403   2.490 -0.7084 -3.3660 -0.3851
 5229SOL     MW20106   0.176   5.426   2.474 -0.2013 -0.9637  0.1264
 5230SOL     OW20107   2.591   3.677   5.549  0.3611 -0.0408  0.4791
 5230SOL    HW120108   2.658   3.624   5.592  0.2357  0.2821  1.0650
 5230SOL    HW220109   2.553   3.618   5.484 -0.3087 -0.9105  1.6476
 5230SOL     MW20110   2.595   3.663   5.546  0.2592 -0.1106  0.7043
 5231SOL     OW20111   1.831   5.543   5.328 -0.6990  0.4535 -0.8481
 5231SOL    HW120112   1.756   5.574   5.277  0.3486  1.9486 -1.5157
 5231SOL    HW220113   1.869   5.473   5.275 -1.3501  0.0026 -0.7212
 5231SOL     MW20114   1.827   5.538   5.315 -0.6483  0.5870 -0.9174
 5232SOL     OW20115   3.753   0.023   1.911 -0.2251 -0.2544 -0.2643
 5232SOL    HW120116   3.822   0.072   1.866  1.8892 -0.8579  2.2123
 5232SOL    HW220117   3.772  -0.069   1.891 -0.0851 -0.4432  0.7310
 5232SOL     MW20118   3.764   0.018   1.902  0.0639 -0.3558  0.1801
 5233SOL     OW20119   2.227   2.695   1.256 -0.0695 -0.1522  0.5464
 5233SOL    HW120120   2.292   2.634   1.290 -1.4355 -1.0233  1.6928
 5233SOL    HW220121   2.228   2.769   1.316  1.9943  1.2791 -1.1681
 5233SOL     MW20122   2.235   2.696   1.268  0.0198 -0.0806  0.4736
 5234SOL     OW20123   2.164   3.447   4.049  0.0811  0.6065 -0.3176
 5234SOL    HW120124   2.247   3.435   4.003  0.0068 -3.4764  0.3764
 5234SOL    HW220125   2.189   3.453   4.141 -0.2263  2.2005 -0.3297
 5234SOL     MW20126   2.178   3.446   4.055  0.0322  0.2880 -0.2298
 5235SOL     OW20127   2.820   1.553   4.373 -0.7336  0.2132  0.2359
 5235SOL    HW120128   2.822   1.638   4.417 -0.4341 -0.0708  0.7760
 5235SOL    HW220129   2.910   1.539   4.343 -0.0614 -1.2758  2.7960
 5235SOL     MW20130   2.832   1.562   4.375 -0.6092 -0.0138  0.6328
 5236SOL     OW20131   5.712   4.766   5.635  0.0008  0.0099 -0.0300
 5236SOL    HW120132   5.678   4.687   5.594 -0.9374  1.0424 -1.3037
 5236SOL    HW220133   5.805   4.769   5.610  0.5020 -1.6233  1.5511
 5236SOL     MW20134   5.720   4.756   5.626 -0.0553 -0.0668  0.0095
 5237SOL     OW20135   1.420   0.006   0.321 -0.0305  0.1404 -0.0489
 5237SOL    HW120136   1.469   0.059   0.384  0.9263 -0.3722 -0.3444
 5237SOL    HW220137   1.412   0.061   0.243 -0.3818  0.4159  0.1776
 5237SOL     MW20138   1.425   0.020   0.319  0.0471  0.1100 -0.0578
 5238SOL     OW20139   2.416   2.639   4.136 -0.4158  0.3082  0.0187
 5238SOL    HW120140   2.407   2.589   4.054 -2.1277  1.8797 -0.7964
 5238SOL    HW220141   2.510   2.639   4.154 -0.1139 -0.8434 -1.4467
 5238SOL     MW20142   2.427   2.632   4.128 -0.5960  0.3622 -0.2732
 5239SOL     OW20143   2.904   0.034   2.379  0.3235  0.1110  0.8242
 5239SOL    HW120144   2.877   0.083   2.302  0.1821 -0.1449  0.7119
 5239SOL    HW220145   2.999   0.028   2.371  0.3948  0.7612  1.0748
 5239SOL     MW20146   2.913   0.040   2.368  0.3145  0.1615  0.8419
 5240SOL     OW20147   0.575   5.006   5.163 -0.3749 -0.1062 -0.2930
 5240SOL    HW120148   0.657   4.984   5.120 -0.6658 -1.0612 -0.3856
 5240SOL    HW220149   0.596   5.006   5.257 -0.0558  0.6191 -0.3581
 5240SOL     MW20150   0.588   5.003   5.170 -0.3713 -0.1359 -0.3133
 5241SOL     OW20151   0.931   5.466   4.064 -0.2072 -0.3918 -0.0970
 5241SOL    HW120152   0.900   5.556   4.075 -0.4651 -0.7862  3.0333
 5241SOL    HW220153   0.879   5.431   3.993 -3.6177  0.4740  1.8731
 5241SOL     MW20154   0.921   5.473   4.056 -0.6768 -0.3314  0.5565
 5242SOL     OW20155   4.696   1.246   3.691 -0.2811 -0.2297  0.2891
 5242SOL    HW120156   4.754   1.294   3.632  0.4101 -0.6244  0.6399
 5242SOL    HW220157   4.657   1.178   3.638 -0.9798  0.4869 -0.1237
 5242SOL     MW20158   4.698   1.244   3.677 -0.2818 -0.1885  0.2811
 5243SOL     OW20159   5.502   3.775   5.475  0.6728  0.5218 -0.5667
 5243SOL    HW120160   5.573   3.804   5.533 -1.1539  0.1445  1.9075
 5243SOL    HW220161   5.526   3.686   5.449 -0.2435 -0.7102  2.5875
 5243SOL     MW20162   5.514   3.768   5.479  0.3209  0.3161  0.1535
 5244SOL     OW20163   5.446   0.448   3.365 -0.5902 -0.1229  0.0739
 5244SOL    HW120164   5.393   0.377   3.329 -0.0758 -1.7951  2.5620
 5244SOL    HW220165   5.524   0.450   3.309 -1.3738 -0.3560 -1.0545
 5244SOL     MW20166   5.449   0.439   3.353 -0.6242 -0.3668  0.2480
 5245SOL     OW20167   1.043   3.484   3.985 -0.3493 -0.5492 -0.1411
 5245SOL    HW120168   1.062   3.500   4.077 -0.1985  1.8460 -0.5582
 5245SOL    HW220169   1.024   3.571   3.949 -0.4118 -1.4519 -2.3641
 5245SOL     MW20170   1.043   3.497   3.992 -0.3380 -0.3583 -0.4790
 5246SOL     OW20171   2.574   2.921   4.670  0.0716  0.4743  0.2575
 5246SOL    HW120172   2.638   2.953   4.733 -2.1860  1.0372  2.3323
 5246SOL    HW220173   2.500   2.982   4.677 -1.0197 -0.5944 -1.5232
 5246SOL     MW20174   2.572   2.933   4.679 -0.3569  0.4094  0.2952
 5247SOL     OW20175   3.801   1.675   1.079 -0.5685 -0.9761 -0.0420
 5247SOL    HW120176   3.864   1.727   1.028 -1.1849  0.0195  0.1910
 5247SOL    HW220177   3.816   1.585   1.051  1.2707 -0.8106  0.3563
 5247SOL     MW20178   3.811   1.670   1.069 -0.4120 -0.8273  0.0389
 5248SOL     OW20179   1.917   2.934   4.609 -0.3452 -0.3646 -0.3086
 5248SOL    HW120180   1.919   2.948   4.514 -2.3519  0.5665 -0.2504
 5248SOL    HW220181   1.970   3.005   4.645  0.0102 -0.4257 -0.7129
 5248SOL     MW20182   1.924   2.945   4.601 -0.5566 -0.2534 -0.3529
 5249SOL     OW20183   3.856   3.999   2.605 -0.1859 -0.6501 -0.1819
 5249SOL    HW120184   3.918   4.056   2.558 -0.2575 -0.3040  0.1450
 5249SOL    HW220185   3.908   3.922   2.627  0.1867 -0.2770  0.2621
 5249SOL     MW20186   3.871   3.997   2.602 -0.1473 -0.5584 -0.0832
 5250SOL     OW20187   0.534   3.913   4.663 -0.5687 -0.4108  0.3494
 5250SOL    HW120188   0.586   3.857   4.720  0.2754 -2.1396 -2.0069
 5250SOL    HW220189   0.510   3.856   4.590 -3.2022  1.2063 -0.1133
 5250SOL     MW20190   0.537   3.899   4.661 -0.7977 -0.4251 -0.0114
 5251SOL     OW20191   2.934   3.677   3.940 -0.8611 -0.4339 -0.3203
 5251SOL    HW120192   2.885   3.743   3.891  1.1888  1.6910  0.3789
 5251SOL    HW220193   3.007   3.654   3.883 -1.0821 -1.4460 -0.1983
 5251SOL     MW20194   2.937   3.682   3.927 -0.6270 -0.2913 -0.2151
 5252SOL     OW20195   3.892   3.899   0.806  0.2275  0.0818  0.5530
 5252SOL    HW120196   3.850   3.847   0.738 -1.7552 -1.9213  3.2172
 5252SOL    HW220197   3.876   3.990   0.781  0.3163 -0.6048 -2.0934
 5252SOL     MW20198   3.885   3.904   0.794 -0.0150 -0.2625  0.5553
 5253SOL     OW20199   4.469   5.916   0.942  0.3769  0.0300  0.5156
 5253SOL    HW120200   4.534   5.941   0.877  0.9406 -1.5974  0.4255
 5253SOL    HW220201   4.462   5.992   1.000  1.6432  0.5820 -0.0452
 5253SOL     MW20202   4.476   5.929   0.941  0.6113 -0.1078  0.4323
 5254SOL     OW20203   4.073   0.610   0.058  0.3161 -0.3066  0.8174
 5254SOL    HW120204   4.034   0.679   0.005 -0.1947  0.0094  1.5920
 5254SOL    HW220205   4.121   0.656   0.126 -0.9839 -0.7052  2.0299
 5254SOL     MW20206   4.074   0.625   0.060  0.0844 -0.3172  1.0718
 5255SOL     OW20207   5.819   0.063   2.321 -0.3831 -0.2123 -0.4312
 5255SOL    HW120208   5.771   0.105   2.249 -0.7120  2.1345  1.1069
 5255SOL    HW220209   5.753   0.051   2.389  0.4508 -0.1426  0.3975
 5255SOL     MW20210   5.804   0.067   2.320 -0.3181  0.0970 -0.1283
 5256SOL     OW20211   5.508   2.895   3.535 -0.1911 -0.4434  0.0706
 5256SOL    HW120212   5.555   2.838   3.474 -0.1204  0.2483 -0.5218
 5256SOL    HW220213   5.480   2.969   3.481 -0.5000 -0.0422  0.7897
 5256SOL     MW20214   5.510   2.897   3.520 -0.2213 -0.3035  0.0868
 5257SOL     OW20215   3.510   1.080   0.572 -0.2659 -0.3113 -0.1864
 5257SOL    HW120216   3.479   1.106   0.659 -1.1305 -1.7915 -0.0419
 5257SOL    HW220217   3.499   1.159   0.519 -1.8144 -0.0200  0.5203
 5257SOL     MW20218   3.504   1.093   0.576 -0.5748 -0.4634 -0.0774
 5258SOL     OW20219   3.509   4.808   2.362 -0.0545 -0.0474 -0.0457
 5258SOL    HW120220   3.546   4.782   2.278  0.7848  2.2855 -0.4495
 5258SOL    HW220221   3.525   4.903   2.366 -1.7859  0.1919  1.8856
 5258SOL     MW20222   3.515   4.817   2.351 -0.1683  0.2818  0.1500
 5259SOL     OW20223   2.862   0.247   1.311  0.2191  0.1161 -0.2579
 5259SOL    HW120224   2.924   0.193   1.261 -1.0030  0.1245 -1.8192
 5259SOL    HW220225   2.824   0.306   1.246  0.7883  2.1943  1.2421
 5259SOL     MW20226   2.865   0.248   1.296  0.1357  0.3832 -0.2656
 5260SOL     OW20227   2.288   0.286   2.037  0.8502  0.5654  0.0640
 5260SOL    HW120228   2.351   0.314   1.970  0.2056 -0.6247 -1.0521
 5260SOL    HW220229   2.287   0.191   2.030 -2.2405  0.6473 -0.9760
 5260SOL     MW20230   2.296   0.277   2.028  0.3722  0.4235 -0.2122
 5261SOL     OW20231   5.541   5.172   1.247 -0.2074 -0.0280 -0.2289
 5261SOL    HW120232   5.516   5.214   1.329  0.6638 -0.7353  0.4089
 5261SOL    HW220233   5.578   5.243   1.194 -3.1151  0.9596 -1.0376
 5261SOL     MW20234   5.542   5.187   1.251 -0.4683  0.0076 -0.2508
 5262SOL     OW20235   0.050   2.200   1.370  0.4408 -0.4986  0.4399
 5262SOL    HW120236   0.080   2.111   1.349 -0.2950 -0.6974  0.2159
 5262SOL    HW220237  -0.045   2.196   1.359  0.3525  0.1765  0.9573
 5262SOL     MW20238   0.042   2.188   1.366  0.3353 -0.4377  0.4774
 5263SOL     OW20239   0.342   5.025   2.454 -0.1743  0.0983 -0.3104
 5263SOL    HW120240   0.272   5.083   2.425 -0.5950 -0.4305 -0.3599
 5263SOL    HW220241   0.333   5.023   2.549  0.1073  0.4438 -0.2735
 5263SOL     MW20242   0.332   5.032   2.463 -0.1921  0.0749 -0.3121
 5264SOL     OW20243   5.173   2.459   0.874 -0.3449 -0.4338 -0.3833
 5264SOL    HW120244   5.148   2.370   0.850  2.8913 -1.0254 -1.9104
 5264SOL    HW220245   5.229   2.488   0.802  0.5392  1.9773  1.2115
 5264SOL     MW20246   5.177   2.451   0.861  0.1826 -0.2010 -0.3746
 5265SOL     OW20247   5.116   4.194   5.108 -0.7379  0.0337  0.1159
 5265SOL    HW120248   5.153   4.246   5.180  0.0426 -0.2537 -0.0714
 5265SOL    HW220249   5.187   4.188   5.044 -1.3074 -0.0239 -0.5188
 5265SOL     MW20250   5.130   4.200   5.109 -0.7105 -0.0100  0.0110
 5266SOL     OW20251   5.918   4.111   4.284 -0.1571 -0.8313  0.0693
 5266SOL    HW120252   5.835   4.158   4.289 -0.2149 -1.0331  1.1993
 5266SOL    HW220253   5.928   4.087   4.192 -1.8909 -1.8058  0.1304
 5266SOL     MW20254   5.909   4.114   4.273 -0.3867 -0.9818  0.2217
 5267SOL     OW20255   2.102   5.808   5.053 -0.0823 -0.7306 -0.2271
 5267SOL    HW120256   2.163   5.734   5.054  1.5133  0.5655  0.5335
 5267SOL    HW220257   2.154   5.883   5.083 -1.1646  1.1122 -2.7504
 5267SOL     MW20258   2.116   5.808   5.057 -0.0165 -0.3290 -0.4525
 5268SOL     OW20259   5.450   5.558   2.308 -0.6493 -0.3112  0.1371
 5268SOL    HW120260   5.396   5.565   2.386 -2.0980 -0.5682 -0.8277
 5268SOL    HW220261   5.507   5.482   2.325 -0.8466 -0.2763  0.9856
 5268SOL     MW20262   5.451   5.549   2.320 -0.8602 -0.3400  0.1223
 5269SOL     OW20263   5.275   1.528   2.082 -0.1925 -0.0696 -0.1308
 5269SOL    HW120264   5.324   1.449   2.059 -1.4484 -0.5590 -1.1789
 5269SOL    HW220265   5.285   1.586   2.006  1.4814  1.1702  1.0001
 5269SOL     MW20266   5.283   1.526   2.069 -0.1397  0.0266 -0.1202
 5270SOL     OW20267   0.516   5.703   0.727  0.2623  0.5451 -0.0766
 5270SOL    HW120268   0.515   5.616   0.766 -1.3356  0.6393  0.1241
 5270SOL    HW220269   0.525   5.687   0.633  1.6417  0.2367  0.0943
 5270SOL     MW20270   0.517   5.690   0.720  0.2343  0.5174 -0.0290
 5271SOL     OW20271   4.557   3.841   5.240 -0.5070 -0.0360 -0.1079
 5271SOL    HW120272   4.544   3.916   5.181 -0.8352 -1.0549 -1.3428
 5271SOL    HW220273   4.642   3.806   5.214 -0.6934 -0.5408 -0.0230
 5271SOL     MW20274   4.566   3.846   5.229 -0.5727 -0.2310 -0.2546
 5272SOL     OW20275   1.384   5.587   3.867 -0.1220  0.5544 -0.6619
 5272SOL    HW120276   1.425   5.503   3.888  0.1904  0.5898 -1.1091
 5272SOL    HW220277   1.337   5.612   3.946  0.0306  0.1002 -0.4279
 5272SOL     MW20278   1.383   5.580   3.880 -0.0626  0.5012 -0.6890
 5273SOL     OW20279   1.405   4.029   5.583  0.0699 -0.7388 -0.9109
 5273SOL    HW120280   1.353   3.968   5.635 -2.1522  1.2496 -0.7099
 5273SOL    HW220281   1.494   4.019   5.617 -0.9148 -1.2075  1.6532
 5273SOL     MW20282   1.410   4.020   5.594 -0.3407 -0.5441 -0.5569
 5274SOL     OW20283   4.913   1.067   1.480 -0.1884  0.3754 -0.0825
 5274SOL    HW120284   4.826   1.064   1.441 -0.7923  0.2737  1.2510
 5274SOL    HW220285   4.901   1.113   1.562  1.0832  0.6413 -0.0347
 5274SOL     MW20286   4.900   1.072   1.485 -0.1030  0.3964  0.0942
 5275SOL     OW20287   3.031   5.877   3.361  0.4286  0.2830  0.1937
 5275SOL    HW120288   3.086   5.955   3.360 -0.5952  1.0239  0.5162
 5275SOL    HW220289   3.021   5.853   3.269 -1.7062  2.3152 -0.1491
 5275SOL     MW20290   3.036   5.884   3.349  0.0246  0.6380  0.1912
 5276SOL     OW20291   2.162   0.186   3.223 -0.5286 -0.1130 -0.8605
 5276SOL    HW120292   2.186   0.140   3.142 -1.3979 -0.0713 -1.1529
 5276SOL    HW220293   2.116   0.121   3.275  1.0824 -0.4735  0.1243
 5276SOL     MW20294   2.159   0.172   3.219 -0.4337 -0.1538 -0.7718
 5277SOL     OW20295   1.051   0.853   0.715  0.4036 -0.3535 -0.5295
 5277SOL    HW120296   1.081   0.906   0.788 -1.5889  0.6880 -0.4234
 5277SOL    HW220297   1.111   0.874   0.643  0.9443  0.3801  0.1333
 5277SOL     MW20298   1.063   0.863   0.715  0.2178 -0.1262 -0.4311
 5278SOL     OW20299   3.399   4.476   2.434  0.5435  0.1209 -0.2575
 5278SOL    HW120300   3.347   4.396   2.419  0.0456  0.1315  1.3696
 5278SOL    HW220301   3.411   4.512   2.346  0.0293 -1.2800 -0.9328
 5278SOL     MW20302   3.394   4.470   2.421  0.4141 -0.0567 -0.1357
 5279SOL     OW20303   1.906   2.986   5.316  0.3128 -0.2570  0.4966
 5279SOL    HW120304   1.845   3.058   5.304 -0.6666 -1.1994 -0.2076
 5279SOL    HW220305   1.987   3.016   5.275 -0.8464 -0.5376 -2.0925
 5279SOL     MW20306   1.909   2.999   5.309  0.0389 -0.4134  0.0753
 5280SOL     OW20307   5.014   4.889   4.309 -0.1009  0.3781 -0.2759
 5280SOL    HW120308   4.986   4.876   4.218 -0.7105 -1.3635  0.1323
 5280SOL    HW220309   5.109   4.891   4.306 -0.1446  1.8276 -1.1268
 5280SOL     MW20310   5.022   4.888   4.297 -0.1845  0.3405 -0.3324
 5281SOL     OW20311   4.753   0.003   2.606  0.2188  0.4893  0.0714
 5281SOL    HW120312   4.721   0.084   2.565 -1.8523 -0.6091 -0.5573
 5281SOL    HW220313   4.700  -0.006   2.685  1.4431  0.4879  0.9013
 5281SOL     MW20314   4.742   0.013   2.611  0.1097  0.3486  0.0973
 5282SOL     OW20315   3.143   2.352   2.101  0.1588 -0.5842  0.4840
 5282SOL    HW120316   3.179   2.265   2.084 -1.1245 -1.4344  1.9686
 5282SOL    HW220317   3.149   2.397   2.016  1.9750 -1.6710 -0.0066
 5282SOL     MW20318   3.149   2.347   2.088  0.2270 -0.8326  0.6113
 5283SOL     OW20319   4.852   5.133   2.947  0.1116  0.4895  0.2737
 5283SOL    HW120320   4.938   5.164   2.918  0.5676 -2.2735 -1.4469
 5283SOL    HW220321   4.792   5.163   2.879 -0.0654  1.0164  0.6546
 5283SOL     MW20322   4.856   5.141   2.935  0.1473  0.2041  0.1020
 5284SOL     OW20323   4.328   3.216   5.492 -0.3622  0.3517 -0.5859
 5284SOL    HW120324   4.279   3.200   5.411  3.0563  0.8062 -2.8708
 5284SOL    HW220325   4.418   3.188   5.471  0.6495  0.6648  3.0150
 5284SOL     MW20326   4.333   3.210   5.479  0.2050  0.4499 -0.4172
 5285SOL     OW20327   3.178   5.509   1.104  0.1717 -0.5294 -0.1392
 5285SOL    HW120328   3.167   5.462   1.186 -1.9261 -0.7744 -0.5221
 5285SOL    HW220329   3.134   5.593   1.118 -1.5130 -1.1568 -1.4689
 5285SOL     MW20330   3.171   5.514   1.116 -0.3126 -0.6413 -0.3585
 5286SOL     OW20331   5.475   0.858   0.304  0.1657 -0.4382 -0.1412
 5286SOL    HW120332   5.497   0.942   0.344 -0.3181  0.3513 -1.4986
 5286SOL    HW220333   5.559   0.820   0.279  0.5079 -1.1368  1.9529
 5286SOL     MW20334   5.488   0.864   0.305  0.1478 -0.4267 -0.0469
 5287SOL     OW20335   3.245   0.244   1.891 -0.3238  0.3595 -0.2814
 5287SOL    HW120336   3.328   0.232   1.845  0.0284  0.2279  0.3882
 5287SOL    HW220337   3.269   0.283   1.975 -0.8765 -0.3311  0.1987
 5287SOL     MW20338   3.258   0.248   1.896 -0.3493  0.2542 -0.1342
 5288SOL     OW20339   2.385   4.248   0.031  0.3238 -0.5893 -0.1647
 5288SOL    HW120340   2.458   4.308   0.014  2.8262 -3.0348  1.4695
 5288SOL    HW220341   2.308   4.305   0.038  2.7544  2.6201  2.4963
 5288SOL     MW20342   2.385   4.263   0.030  0.9553 -0.4921  0.3852
 5289SOL     OW20343   1.287   2.432   0.902  0.6361  0.0325 -0.2875
 5289SOL    HW120344   1.299   2.410   0.809  2.3351  1.6750 -0.4790
 5289SOL    HW220345   1.346   2.373   0.948  1.1221  0.4398 -0.3877
 5289SOL     MW20346   1.296   2.422   0.896  0.9159  0.2949 -0.3248
 5290SOL     OW20347   3.002   3.090   1.832  0.4388  0.5946  0.3315
 5290SOL    HW120348   2.939   3.110   1.763  0.8193  0.4808 -0.0540
 5290SOL    HW220349   2.963   3.125   1.911  0.3727  1.4676 -0.0774
 5290SOL     MW20350   2.989   3.097   1.833  0.4792  0.6919  0.2298
 5291SOL     OW20351   3.221   1.132   2.165  0.1699 -0.3090 -0.0178
 5291SOL    HW120352   3.304   1.150   2.209 -0.8778  1.2785  1.3802
 5291SOL    HW220353   3.165   1.205   2.189 -0.9785 -0.2607 -2.7034
 5291SOL     MW20354   3.225   1.143   2.174 -0.1113 -0.0998 -0.1826
 5292SOL     OW20355   5.277   3.155   0.143  0.4014 -0.0030 -0.3121
 5292SOL    HW120356   5.207   3.170   0.207  0.8012 -1.5190  0.5171
 5292SOL    HW220357   5.255   3.211   0.069 -1.2295  0.1806  0.2955
 5292SOL     MW20358   5.265   3.164   0.142  0.2441 -0.1733 -0.1282
 5293SOL     OW20359   5.076   5.754   0.980 -0.1639  0.2502 -0.3620
 5293SOL    HW120360   5.106   5.685   1.040 -0.6295  0.2293 -0.1471
 5293SOL    HW220361   5.053   5.708   0.900  1.9417  0.4635 -1.1098
 5293SOL     MW20362   5.077   5.739   0.978  0.0458  0.2747 -0.4302
 5294SOL     OW20363   5.475   3.807   1.201  0.2998 -0.0289  0.8955
 5294SOL    HW120364   5.454   3.808   1.108 -0.0728  0.3881  0.9772
 5294SOL    HW220365   5.568   3.827   1.205  0.8280 -2.3292  0.5014
 5294SOL     MW20366   5.484   3.810   1.190  0.3195 -0.2701  0.8556
 5295SOL     OW20367   5.916   1.604   4.960 -0.2949  0.4320  0.6573
 5295SOL    HW120368   5.905   1.696   4.935 -0.3411 -0.3053 -2.2368
 5295SOL    HW220369   5.837   1.583   5.011 -0.7281  1.7314  0.5282
 5295SOL     MW20370   5.904   1.613   4.964 -0.3567  0.5038  0.2704
 5296SOL     OW20371   4.115   1.957   4.316 -0.1126 -0.3759 -1.1069
 5296SOL    HW120372   4.202   1.977   4.282  0.6162 -0.2698  0.7913
 5296SOL    HW220373   4.112   1.862   4.322  0.0303 -0.3545 -0.7300
 5296SOL     MW20374   4.125   1.948   4.312 -0.0014 -0.3595 -0.8159
 5297SOL     OW20375   1.082   5.463   0.626 -0.4786  0.3575  0.2264
 5297SOL    HW120376   1.107   5.385   0.674 -0.5134  0.1786 -0.0401
 5297SOL    HW220377   0.993   5.444   0.594 -0.3726  0.3806 -0.0909
 5297SOL     MW20378   1.074   5.451   0.628 -0.4696  0.3376  0.1518
 5298SOL     OW20379   5.377   0.627   3.707  0.2979 -0.0913 -0.3916
 5298SOL    HW120380   5.453   0.635   3.649  0.7542  0.2499  0.2421
 5298SOL    HW220381   5.369   0.714   3.746  0.6037 -0.5958  0.8094
 5298SOL     MW20382   5.386   0.639   3.705  0.3958 -0.1123 -0.1569
 5299SOL     OW20383   0.706   2.875   1.582  1.0421 -0.1992 -0.0552
 5299SOL    HW120384   0.673   2.787   1.566  0.6493  0.2229 -1.5900
 5299SOL    HW220385   0.635   2.919   1.629  0.2548  0.0482 -1.4623
 5299SOL     MW20386   0.693   2.870   1.586  0.8911 -0.1132 -0.4318
 5300SOL     OW20387   3.111   2.925   2.980 -0.5526  0.0391 -0.3201
 5300SOL    HW120388   3.039   2.863   2.992 -0.5339  0.2144  0.7711
 5300SOL    HW220389   3.067   3.009   2.965 -0.5820  0.2579  0.9595
 5300SOL     MW20390   3.096   2.928   2.980 -0.5538  0.0892 -0.0165
 5301SOL     OW20391   2.664   2.931   1.769  0.0244 -0.0414 -0.5567
 5301SOL    HW120392   2.612   2.939   1.849  2.3261  0.3140  0.9458
 5301SOL    HW220393   2.661   3.018   1.730  0.6883  0.3686  0.2901
 5301SOL     MW20394   2.657   2.943   1.775  0.4041  0.0567 -0.2558
 5302SOL     OW20395   3.388   2.502   5.242 -0.6639  0.5179  0.6676
 5302SOL    HW120396   3.332   2.553   5.183 -1.6881 -0.0713  1.1193
 5302SOL    HW220397   3.388   2.550   5.324 -0.0469  0.8079  0.5041
 5302SOL     MW20398   3.381   2.514   5.245 -0.7160  0.4795  0.7043
 5303SOL     OW20399   4.757   0.726   2.754  0.4162  0.0700 -0.0657
 5303SOL    HW120400   4.723   0.805   2.796 -0.8200 -1.1195  1.2439
 5303SOL    HW220401   4.680   0.677   2.729  1.1758 -0.6660 -0.9989
 5303SOL     MW20402   4.743   0.730   2.756  0.3552 -0.1764 -0.0174
 5304SOL     OW20403   5.600   3.761   3.447 -0.0158 -0.2640  0.3129
 5304SOL    HW120404   5.566   3.843   3.412  0.5795 -1.1344 -2.4555
 5304SOL    HW220405   5.540   3.694   3.414  1.0612 -1.1975  0.1889
 5304SOL     MW20406   5.588   3.763   3.438  0.1984 -0.4954 -0.0575
 5305SOL     OW20407   2.137   2.385   1.564  0.2434  0.1673  0.1141
 5305SOL    HW120408   2.102   2.305   1.525 -1.1362  0.9430 -0.2658
 5305SOL    HW220409   2.069   2.451   1.550  0.7777  1.0719  1.6422
 5305SOL     MW20410   2.124   2.383   1.557  0.1352  0.3824  0.2611
 5306SOL     OW20411   2.549   5.030   3.863 -0.0133 -0.0376 -0.1367
 5306SOL    HW120412   2.481   4.975   3.824 -1.1744 -1.4926  3.6695
 5306SOL    HW220413   2.622   4.971   3.880  0.4946  0.5647 -0.2240
 5306SOL     MW20414   2.549   5.016   3.860 -0.0970 -0.1464  0.3390
 5307SOL     OW20415   4.455   4.665   1.404 -0.2984 -0.2555 -0.0197
 5307SOL    HW120416   4.521   4.641   1.339  0.2370  2.0697 -0.3707
 5307SOL    HW220417   4.505   4.691   1.481 -0.8637 -0.4630  0.4191
 5307SOL     MW20418   4.469   4.666   1.405 -0.3018  0.0153 -0.0085
 5308SOL     OW20419   4.768   2.990   3.890  0.5751  0.2114 -0.0117
 5308SOL    HW120420   4.678   3.021   3.901 -0.7366 -2.7927 -1.5381
 5308SOL    HW220421   4.793   3.019   3.802  0.7272  0.2209  0.0343
 5308SOL     MW20422   4.759   2.997   3.880  0.4268 -0.1719 -0.2012
 5309SOL     OW20423   4.540   1.159   4.592 -0.1301  0.0281  0.4842
 5309SOL    HW120424   4.456   1.204   4.600  0.1606  0.4580  1.1406
 5309SOL    HW220425   4.542   1.096   4.664 -0.2389 -0.5577 -0.0211
 5309SOL     MW20426   4.530   1.157   4.602 -0.1063  0.0080  0.5035
 5310SOL     OW20427   0.057   0.825   0.153  0.1358  0.5916  0.7080
 5310SOL    HW120428   0.058   0.763   0.226 -2.3922  1.6913  1.7482
 5310SOL    HW220429  -0.006   0.789   0.091  0.3358  0.9658  0.2828
 5310SOL     MW20430   0.049   0.813   0.155 -0.1622  0.7802  0.7868
 5311SOL     OW20431   3.368   1.887   4.969 -0.0162  0.3780  0.6413
 5311SOL    HW120432   3.383   1.841   4.887 -0.4656 -1.3235  1.4830
 5311SOL    HW220433   3.370   1.980   4.946 -2.1068 -0.1080 -1.6255
 5311SOL     MW20434   3.371   1.893   4.956 -0.3414  0.0980  0.4587
 5312SOL     OW20435   1.801   2.949   3.012 -0.5743 -0.0107 -0.0976
 5312SOL    HW120436   1.850   3.020   2.970 -0.4172 -0.3242 -0.4501
 5312SOL    HW220437   1.744   2.993   3.075 -0.2509  0.4012 -0.0946
 5312SOL     MW20438   1.800   2.964   3.014 -0.5127  0.0021 -0.1421
 5313SOL     OW20439   2.889   0.889   0.015 -0.4412 -0.3005 -0.3948
 5313SOL    HW120440   2.950   0.925   0.079 -2.5403 -0.3052  1.7138
 5313SOL    HW220441   2.941   0.830  -0.039  1.2131 -1.0419  1.9631
 5313SOL     MW20442   2.903   0.886   0.016 -0.4981 -0.3960  0.1774
 5314SOL     OW20443   2.391   3.395   1.951  0.3581  0.4704  0.0028
 5314SOL    HW120444   2.393   3.441   1.867  0.6902 -0.8780 -0.7446
 5314SOL    HW220445   2.477   3.354   1.958 -0.7228 -2.0139 -0.5133
 5314SOL     MW20446   2.402   3.395   1.941  0.2625 -0.0203 -0.1589
 5315SOL     OW20447   2.422   2.751   2.675  0.1762  0.9666  0.0105
 5315SOL    HW120448   2.353   2.813   2.651 -2.0802 -1.2962  0.4095
 5315SOL    HW220449   2.408   2.734   2.768  0.5927 -0.3176 -0.1505
 5315SOL     MW20450   2.412   2.757   2.684 -0.0594  0.5124  0.0408
 5316SOL     OW20451   4.873   0.314   3.605 -0.5934 -0.0869  0.5773
 5316SOL    HW120452   4.867   0.386   3.542  1.9519  0.9566  1.4684
 5316SOL    HW220453   4.867   0.356   3.690  0.0090 -1.0264  1.0956
 5316SOL     MW20454   4.871   0.328   3.608 -0.1907 -0.0736  0.7577
 5317SOL     OW20455   5.223   3.974   5.683 -0.6346 -0.4328 -0.2884
 5317SOL    HW120456   5.225   4.025   5.764 -0.3246  2.2019 -1.8842
 5317SOL    HW220457   5.293   4.011   5.629 -0.4628 -2.5228 -1.5566
 5317SOL     MW20458   5.232   3.986   5.686 -0.5727 -0.3629 -0.6542
 5318SOL     OW20459   0.234   5.189   4.227 -0.1402  0.6124 -0.5231
 5318SOL    HW120460   0.307   5.197   4.166  0.5537 -1.1966  0.0371
 5318SOL    HW220461   0.249   5.257   4.293  1.9450 -0.8092  0.5024
 5318SOL     MW20462   0.245   5.199   4.228  0.2156  0.1988 -0.3204
 5319SOL     OW20463   1.875   3.213   1.012 -0.1972 -0.3676 -0.6069
 5319SOL    HW120464   1.942   3.188   1.076 -0.3624 -0.3238 -0.4170
 5319SOL    HW220465   1.924   3.257   0.943 -0.2526  1.3740  0.4337
 5319SOL     MW20466   1.890   3.215   1.012 -0.2255 -0.1392 -0.4494
 5320SOL     OW20467   0.553   4.914   3.394  0.0998  0.1276 -0.3837
 5320SOL    HW120468   0.481   4.873   3.346 -0.6897  0.1214  0.7722
 5320SOL    HW220469   0.570   4.995   3.347  0.5814 -0.7511 -1.7431
 5320SOL     MW20470   0.546   4.919   3.382  0.0603  0.0143 -0.4098
 5321SOL     OW20471   5.207   0.914   0.884  0.2863 -0.0385  0.3391
 5321SOL    HW120472   5.294   0.876   0.877  0.2524 -0.5044  2.3235
 5321SOL    HW220473   5.222   1.006   0.904  0.3118 -0.1592  0.8642
 5321SOL     MW20474   5.220   0.921   0.885  0.2851 -0.1135  0.6604
 5322SOL     OW20475   5.246   3.513   0.387  0.0936  0.8464 -0.2276
 5322SOL    HW120476   5.292   3.579   0.334 -3.3201  1.8555 -2.0969
 5322SOL    HW220477   5.212   3.562   0.462  0.7249  0.3950  0.3687
 5322SOL     MW20478   5.248   3.528   0.390 -0.2632  0.9179 -0.3906
 5323SOL     OW20479   5.258   5.947   2.237  0.6729 -0.3992  0.1698
 5323SOL    HW120480   5.349   5.941   2.265  1.3421 -2.0064 -2.1793
 5323SOL    HW220481   5.211   5.888   2.296  1.2955 -0.2265  0.8488
 5323SOL     MW20482   5.264   5.938   2.248  0.8383 -0.5832 -0.0439
 5324SOL     OW20483   0.933   1.870   5.318 -0.7640  0.0183  0.0543
 5324SOL    HW120484   0.862   1.931   5.300 -0.8455 -0.2380 -0.4753
 5324SOL    HW220485   0.956   1.887   5.410  0.0401  1.6919 -0.4455
 5324SOL     MW20486   0.927   1.880   5.328 -0.6715  0.1998 -0.0772
 5325SOL     OW20487   0.047   3.162   3.715 -0.1125 -0.3863  0.5233
 5325SOL    HW120488  -0.048   3.154   3.716 -0.0163 -1.5593  1.0151
 5325SOL    HW220489   0.072   3.137   3.626 -0.2373 -0.3698  0.4834
 5325SOL     MW20490   0.038   3.158   3.704 -0.1162 -0.5343  0.5813
 5326SOL     OW20491   5.129   0.261   5.187 -0.2216 -0.0937 -0.3581
 5326SOL    HW120492   5.051   0.239   5.237  0.6734  1.5821  1.8571
 5326SOL    HW220493   5.175   0.178   5.175 -1.3908 -0.7876 -0.0705
 5326SOL     MW20494   5.125   0.247   5.192 -0.2565  0.0321 -0.0377
 5327SOL     OW20495   5.540   3.564   4.194 -0.3958  0.4504 -0.1752
 5327SOL    HW120496   5.622   3.514   4.187 -0.2754  0.2783  2.1797
 5327SOL    HW220497   5.559   3.647   4.150  0.6823 -0.0222 -0.6206
 5327SOL     MW20498   5.553   3.568   4.187 -0.2427  0.3681  0.0691
 5328SOL     OW20499   1.704   3.164   5.443  0.3149  0.1221 -0.3071
 5328SOL    HW120500   1.631   3.181   5.502  0.7525 -0.0507  0.2942
 5328SOL    HW220501   1.729   3.250   5.410  0.4438  0.2925  0.2210
 5328SOL     MW20502   1.698   3.177   5.447  0.3874  0.1218 -0.1626
 5329SOL     OW20503   2.206   1.026   3.648  0.1076  0.6932 -0.9825
 5329SOL    HW120504   2.150   0.950   3.635  0.0841  0.5676 -0.1804
 5329SOL    HW220505   2.148   1.101   3.640 -0.0204  0.5929 -0.9916
 5329SOL     MW20506   2.192   1.026   3.645  0.0885  0.6642 -0.8812
 5330SOL     OW20507   3.110   3.580   3.761 -0.3369  0.0820  0.5396
 5330SOL    HW120508   3.032   3.555   3.713  0.5535  0.0475 -0.9193
 5330SOL    HW220509   3.170   3.506   3.750  0.7533  1.0612 -0.2955
 5330SOL     MW20510   3.108   3.567   3.754 -0.0834  0.2031  0.2463
 5331SOL     OW20511   0.567   2.021   3.352 -0.3605  0.0948 -0.0502
 5331SOL    HW120512   0.587   1.929   3.336  1.8437  0.4513  0.4805
 5331SOL    HW220513   0.619   2.044   3.429 -2.3749  1.2968  1.0153
 5331SOL     MW20514   0.576   2.012   3.360 -0.3362  0.2940  0.1543
 5332SOL     OW20515   5.170   5.563   1.160 -0.9654  0.0673 -1.2220
 5332SOL    HW120516   5.179   5.504   1.086 -3.1067  0.7934 -2.0976
 5332SOL    HW220517   5.080   5.551   1.189 -0.9768  1.8236 -0.4851
 5332SOL     MW20518   5.160   5.554   1.154 -1.2407  0.3848 -1.2397
 5333SOL     OW20519   2.105   4.358   3.479 -0.0552 -0.5071 -0.2130
 5333SOL    HW120520   2.190   4.377   3.519 -0.1759 -0.1599 -0.1193
 5333SOL    HW220521   2.099   4.417   3.405 -0.3592 -0.2951 -0.0232
 5333SOL     MW20522   2.115   4.368   3.475 -0.1097 -0.4354 -0.1767
 5334SOL     OW20523   5.779   1.481   4.457  0.1736  0.5685  0.2947
 5334SOL    HW120524   5.778   1.387   4.478 -0.5150  0.4761 -0.1267
 5334SOL    HW220525   5.762   1.524   4.541  3.6794  0.4689  1.1379
 5334SOL     MW20526   5.777   1.474   4.470  0.5345  0.5438  0.3486
 5335SOL     OW20527   1.930   2.507   3.116 -0.5321  0.2477 -0.7235
 5335SOL    HW120528   1.989   2.551   3.177  1.1083  0.3554 -2.3670
 5335SOL    HW220529   1.850   2.560   3.119 -0.8133 -0.2704  1.9954
 5335SOL     MW20530   1.927   2.519   3.125 -0.3582  0.1953 -0.5858
 5336SOL     OW20531   4.696   2.047   3.227 -0.6770 -0.3571  0.2173
 5336SOL    HW120532   4.786   2.024   3.250 -0.6944  1.4943  2.3600
 5336SOL    HW220533   4.690   2.033   3.132  1.5672 -1.4084  0.2159
 5336SOL     MW20534   4.707   2.042   3.218 -0.3924 -0.2544  0.4919
 5337SOL     OW20535   3.469   0.052   5.063  0.3887  0.4461  0.1457
 5337SOL    HW120536   3.476   0.041   4.968 -2.6074  0.9686 -0.1775
 5337SOL    HW220537   3.542   0.109   5.086 -0.3706  2.4333 -2.2386
 5337SOL     MW20538   3.479   0.058   5.054 -0.0920  0.7674 -0.2007
 5338SOL     OW20539   5.012   0.946   3.588 -0.0070  0.3126 -0.5622
 5338SOL    HW120540   4.988   0.985   3.505 -0.6068  0.0593 -0.5131
 5338SOL    HW220541   4.961   0.865   3.592  1.0962 -0.3922 -0.5932
 5338SOL     MW20542   5.002   0.941   3.578  0.0572  0.1899 -0.5600
 5339SOL     OW20543   4.498   1.824   2.650 -0.4027 -0.3287 -0.1816
 5339SOL    HW120544   4.444   1.894   2.613 -1.4130 -0.2701  1.3863
 5339SOL    HW220545   4.537   1.862   2.728  0.7316 -0.8595 -0.4811
 5339SOL     MW20546   4.496   1.838   2.655 -0.3872 -0.3891 -0.0193
 5340SOL     OW20547   1.951   3.313   4.294 -0.4044 -0.1405  0.2333
 5340SOL    HW120548   2.040   3.288   4.319  0.0887  0.1211 -1.2184
 5340SOL    HW220549   1.946   3.294   4.201 -0.7070  3.1406 -0.4740
 5340SOL     MW20550   1.961   3.307   4.286 -0.3800  0.3130 -0.0429
 5341SOL     OW20551   0.685   2.238   0.179  0.2090  0.4503  0.4683
 5341SOL    HW120552   0.713   2.174   0.114  0.3152  1.7930 -0.8412
 5341SOL    HW220553   0.623   2.191   0.235 -0.4904 -0.5063 -1.0908
 5341SOL     MW20554   0.680   2.224   0.178  0.1331  0.4997  0.1011
 5342SOL     OW20555   2.933   4.304   4.276 -0.5138  0.4078  0.1693
 5342SOL    HW120556   2.963   4.393   4.259  0.3165  0.2826  0.9430
 5342SOL    HW220557   2.895   4.306   4.364 -0.8230  0.0800  0.0466
 5342SOL     MW20558   2.932   4.315   4.285 -0.4473  0.3495  0.2527
 5343SOL     OW20559   3.084   5.471   4.046 -0.4045 -0.3102  0.2975
 5343SOL    HW120560   3.120   5.508   3.966  0.1880 -1.6407 -0.0755
 5343SOL    HW220561   3.150   5.488   4.113  0.2460 -1.3956 -0.0525
 5343SOL     MW20562   3.097   5.478   4.045 -0.2456 -0.6199  0.2050
 5344SOL     OW20563   1.119   1.054   0.091  0.6591  0.3452  0.0725
 5344SOL    HW120564   1.116   0.976   0.145  0.0364  0.0734 -0.3531
 5344SOL    HW220565   1.154   1.024   0.007  0.8033  0.6032  0.0372
 5344SOL     MW20566   1.123   1.040   0.087  0.5978  0.3434  0.0135
 5345SOL     OW20567   3.076   3.952   0.599 -0.4091  0.1820  0.2553
 5345SOL    HW120568   3.005   4.016   0.594 -2.1558 -1.7925 -1.1866
 5345SOL    HW220569   3.036   3.873   0.634  1.2285 -0.7586  0.0855
 5345SOL     MW20570   3.062   3.950   0.603 -0.4230 -0.1912  0.0490
 5346SOL     OW20571   0.143   3.064   1.802  0.2339  0.2578  0.1902
 5346SOL    HW120572   0.060   3.021   1.818 -0.7409  2.6801  2.0639
 5346SOL    HW220573   0.160   3.053   1.709 -1.6841 -1.0721 -0.0148
 5346SOL     MW20574   0.135   3.057   1.792 -0.1364  0.3977  0.4038
 5347SOL     OW20575   3.338   4.594   4.351  0.3145 -0.2610  0.0277
 5347SOL    HW120576   3.377   4.636   4.274  1.6462 -0.9916  0.2851
 5347SOL    HW220577   3.407   4.597   4.417  0.1005 -1.9838  0.3529
 5347SOL     MW20578   3.352   4.600   4.350  0.4575 -0.5755  0.1025
 5348SOL     OW20579   4.071   4.655   0.676 -0.3723  0.6776  0.0765
 5348SOL    HW120580   4.135   4.610   0.620 -1.5376 -1.4344  0.4098
 5348SOL    HW220581   4.110   4.741   0.692  1.2567  0.2971 -1.7113
 5348SOL     MW20582   4.085   4.660   0.671 -0.3133  0.3581 -0.1097
 5349SOL     OW20583   1.248   2.966   0.403 -0.4460 -0.4708  0.6078
 5349SOL    HW120584   1.287   2.912   0.472  2.5339  0.0246 -0.6208
 5349SOL    HW220585   1.245   3.054   0.441  3.9224  0.4150 -0.7656
 5349SOL     MW20586   1.253   2.970   0.417  0.4947 -0.2940  0.2747
 5350SOL     OW20587   1.548   5.438   2.753  0.3015  0.2393  0.2766
 5350SOL    HW120588   1.552   5.445   2.848 -0.6730 -1.3713  0.4584
 5350SOL    HW220589   1.488   5.366   2.737 -0.3537  1.1539 -1.5855
 5350SOL     MW20590   1.541   5.430   2.763  0.0929  0.1507  0.0615
 5351SOL     OW20591   1.719   2.676   3.113  0.5395 -0.1267 -0.4633
 5351SOL    HW120592   1.752   2.750   3.062  0.6636 -0.0290 -0.2435
 5351SOL    HW220593   1.704   2.712   3.200  0.3510 -0.2987 -0.4224
 5351SOL     MW20594   1.721   2.690   3.118  0.5312 -0.1359 -0.4301
 5352SOL     OW20595   4.140   1.314   4.429 -0.1610 -0.4074 -0.2912
 5352SOL    HW120596   4.168   1.320   4.338 -0.5871 -1.4854 -0.5037
 5352SOL    HW220597   4.052   1.352   4.430  0.8019  1.9035  0.1584
 5352SOL     MW20598   4.132   1.320   4.418 -0.0925 -0.2497 -0.2608
 5353SOL     OW20599   3.794   4.586   2.822  0.2035  0.0150  0.3195
 5353SOL    HW120600   3.888   4.584   2.805 -0.0695 -0.3762 -1.2655
 5353SOL    HW220601   3.757   4.631   2.746 -0.8302  0.6581  1.2023
 5353SOL     MW20602   3.801   4.591   2.810  0.0362  0.0467  0.2296
 5354SOL     OW20603   2.462   4.560   1.622 -0.8461  0.3935 -0.1874
 5354SOL    HW120604   2.412   4.479   1.610 -1.7107  0.9896 -0.6608
 5354SOL    HW220605   2.401   4.629   1.598 -1.0856  1.3844  3.1013
 5354SOL     MW20606   2.448   4.558   1.617 -0.9878  0.5965  0.1731
 5355SOL     OW20607   1.423   0.955   0.838  0.2225 -0.1260  0.6066
 5355SOL    HW120608   1.337   0.993   0.860  0.0063  0.4497 -1.1293
 5355SOL    HW220609   1.486   1.011   0.882 -0.1597  1.4549 -0.8305
 5355SOL     MW20610   1.420   0.967   0.846  0.1459  0.1501  0.2005
 5356SOL     OW20611   5.684   1.565   5.109 -0.1412  0.4670 -0.1884
 5356SOL    HW120612   5.694   1.556   5.204 -0.7415 -0.5725 -0.2040
 5356SOL    HW220613   5.602   1.518   5.090 -1.2679  2.6588 -0.9165
 5356SOL     MW20614   5.675   1.558   5.119 -0.3629  0.6146 -0.2837
 5357SOL     OW20615   2.344   0.868   0.286 -0.2260 -0.7046  0.8437
 5357SOL    HW120616   2.388   0.951   0.303  0.3323 -0.8098 -0.0544
 5357SOL    HW220617   2.367   0.847   0.195 -2.0387 -0.8057  0.3693
 5357SOL     MW20618   2.352   0.876   0.276 -0.3862 -0.7311  0.6680
 5358SOL     OW20619   0.941   2.510   0.606 -0.0291  0.1258  0.6353
 5358SOL    HW120620   0.931   2.603   0.587 -0.4001  0.0866  0.6364
 5358SOL    HW220621   0.908   2.465   0.528  1.1152  0.0043  0.2064
 5358SOL     MW20622   0.936   2.516   0.594  0.0699  0.1051  0.5805
 5359SOL     OW20623   1.182   0.530   4.005  0.0591 -0.3118  1.1467
 5359SOL    HW120624   1.270   0.497   4.025  1.3764  0.9818 -2.2073
 5359SOL    HW220625   1.132   0.451   3.985  1.8275 -0.7482 -1.8017
 5359SOL     MW20626   1.187   0.515   4.005  0.4541 -0.2020  0.3395
 5360SOL     OW20627   2.649   3.999   0.191  0.1639 -0.3944 -0.2102
 5360SOL    HW120628   2.586   4.020   0.122 -0.4996  1.1089  0.8542
 5360SOL    HW220629   2.734   4.024   0.154 -0.0106 -1.0507 -1.0753
 5360SOL     MW20630   2.652   4.005   0.177  0.0570 -0.2856 -0.1846
 5361SOL     OW20631   4.471   5.481   4.028  0.2035 -0.8584  0.4955
 5361SOL    HW120632   4.473   5.397   4.074 -0.4746 -1.6075 -0.8063
 5361SOL    HW220633   4.388   5.521   4.053 -0.0580 -1.1603  0.1125
 5361SOL     MW20634   4.461   5.475   4.037  0.0830 -0.9933  0.2804
 5362SOL     OW20635   4.345   3.820   4.388 -0.5044 -0.2299  0.4153
 5362SOL    HW120636   4.428   3.801   4.345 -0.0161  1.3507  0.6424
 5362SOL    HW220637   4.309   3.894   4.339 -3.2918 -2.8336 -1.6906
 5362SOL     MW20638   4.351   3.827   4.376 -0.7982 -0.3607  0.1750
 5363SOL     OW20639   4.158   3.246   4.572  0.7251  0.3808 -0.4182
 5363SOL    HW120640   4.174   3.332   4.610  2.4379  0.7680 -1.9677
 5363SOL    HW220641   4.063   3.238   4.570  0.5731  1.6963  0.9110
 5363SOL     MW20642   4.148   3.256   4.576  0.9251  0.5989 -0.4463
 5364SOL     OW20643   4.849   3.582   5.510 -0.7782  0.2361 -0.2122
 5364SOL    HW120644   4.938   3.571   5.543 -0.7274 -0.1338 -0.4719
 5364SOL    HW220645   4.855   3.656   5.449 -0.9354  1.1215  0.8355
 5364SOL     MW20646   4.861   3.590   5.506 -0.7915  0.3023 -0.1111
 5365SOL     OW20647   0.657   1.935   2.074 -0.8525 -0.1024  0.3483
 5365SOL    HW120648   0.750   1.954   2.088 -0.9028  0.2241  0.2490
 5365SOL    HW220649   0.657   1.854   2.024 -0.6857 -1.5109  2.5791
 5365SOL     MW20650   0.669   1.927   2.069 -0.8376 -0.2409  0.6211
 5366SOL     OW20651   3.978   1.546   4.699  0.1808  0.1052  0.0456
 5366SOL    HW120652   3.916   1.553   4.773 -0.1642  0.7013 -0.2977
 5366SOL    HW220653   4.060   1.518   4.739  0.0937  0.7850  0.7080
 5366SOL     MW20654   3.980   1.544   4.714  0.1256  0.2685  0.0863
 5367SOL     OW20655   3.038   5.371   1.777  0.0995  0.2301  0.4653
 5367SOL    HW120656   3.125   5.356   1.739 -0.3690  2.5364 -1.6161
 5367SOL    HW220657   2.998   5.284   1.779  1.0910 -0.3385 -2.0251
 5367SOL     MW20658   3.044   5.358   1.772  0.1667  0.4530 -0.1199
 5368SOL     OW20659   0.369   2.850   4.877  0.1006 -0.1756 -0.1637
 5368SOL    HW120660   0.297   2.788   4.865  0.8091 -0.9106 -0.7694
 5368SOL    HW220661   0.393   2.876   4.788 -0.0930  0.8649  0.0828
 5368SOL     MW20662   0.363   2.845   4.864  0.1665 -0.1364 -0.2098
 5369SOL     OW20663   3.566   2.239   1.458 -0.0730  0.0011 -0.2183
 5369SOL    HW120664   3.595   2.301   1.525 -3.0912 -0.1032  1.3073
 5369SOL    HW220665   3.524   2.168   1.508  0.3492 -1.6210 -2.0910
 5369SOL     MW20666   3.564   2.238   1.473 -0.4053 -0.2198 -0.2626
 5370SOL     OW20667   3.183   4.211   1.887  1.3796 -0.1050  0.0823
 5370SOL    HW120668   3.196   4.141   1.823 -1.6769 -1.0274  0.3935
 5370SOL    HW220669   3.203   4.171   1.971  2.4797  0.2416 -0.0143
 5370SOL     MW20670   3.187   4.197   1.890  1.1294 -0.1783  0.1098
 5371SOL     OW20671   3.966   2.823   3.094 -0.0059 -0.5292 -0.0693
 5371SOL    HW120672   4.001   2.736   3.075 -0.3826 -0.5588 -0.6461
 5371SOL    HW220673   4.035   2.867   3.144  0.3075 -1.0553 -0.0415
 5371SOL     MW20674   3.979   2.818   3.098 -0.0141 -0.6003 -0.1397
 5372SOL     OW20675   2.139   5.743   5.455  0.4643 -0.0033  0.2556
 5372SOL    HW120676   2.077   5.773   5.388  0.6762  0.4734  0.2714
 5372SOL    HW220677   2.087   5.738   5.535  0.7168  1.5521  0.5292
 5372SOL     MW20678   2.124   5.746   5.457  0.5238  0.2575  0.2928
 5373SOL     OW20679   2.532   0.904   2.292  0.0834 -0.5956 -0.0478
 5373SOL    HW120680   2.566   0.857   2.216  2.6553 -0.0673  0.7417
 5373SOL    HW220681   2.557   0.995   2.278  0.7523 -0.5155  1.4987
 5373SOL     MW20682   2.539   0.909   2.281  0.4983 -0.5177  0.2513
 5374SOL     OW20683   4.956   2.103   3.520 -0.1821  0.0156  1.1452
 5374SOL    HW120684   4.985   2.164   3.588  2.3759 -0.0343  0.1729
 5374SOL    HW220685   4.967   2.017   3.560  1.6667 -0.0310  0.5939
 5374SOL     MW20686   4.961   2.100   3.534  0.3819  0.0033  0.9503
 5375SOL     OW20687   3.559   0.542   3.648 -0.6866 -0.3853 -0.0524
 5375SOL    HW120688   3.520   0.589   3.574  1.7220  0.7835 -0.6463
 5375SOL    HW220689   3.647   0.579   3.656 -1.4774  0.8815  4.5986
 5375SOL     MW20690   3.565   0.553   3.640 -0.4797 -0.0736  0.4671
 5376SOL     OW20691   3.365   5.880   4.417 -0.6732 -0.2781 -0.5196
 5376SOL    HW120692   3.285   5.934   4.420  0.6143  1.6020  1.0468
 5376SOL    HW220693   3.425   5.923   4.478  0.8749 -2.7826 -0.2365
 5376SOL     MW20694   3.362   5.893   4.425 -0.3104 -0.3576 -0.2828
 5377SOL     OW20695   0.377   0.521   3.612  0.3481  0.3676  0.7523
 5377SOL    HW120696   0.318   0.595   3.627  1.0273  0.7312  1.7331
 5377SOL    HW220697   0.452   0.559   3.566  0.1922  0.0639  0.2396
 5377SOL     MW20698   0.379   0.535   3.608  0.4151  0.3753  0.8121
 5378SOL     OW20699   1.591   3.610   2.991 -0.1209  0.3148 -0.2197
 5378SOL    HW120700   1.672   3.558   2.981 -1.1597 -1.2390 -0.7164
 5378SOL    HW220701   1.521   3.545   2.987 -1.3100  1.3512  2.7431
 5378SOL     MW20702   1.593   3.595   2.989 -0.4061  0.2482  0.0961
 5379SOL     OW20703   0.973   3.562   2.874  0.4120  0.0825  0.1834
 5379SOL    HW120704   0.965   3.509   2.953  0.9609  0.7038  0.6679
 5379SOL    HW220705   1.053   3.612   2.887 -0.9710  2.2829  0.5009
 5379SOL     MW20706   0.982   3.562   2.886  0.3052  0.4439  0.2859
 5380SOL     OW20707   0.904   3.944   2.175  0.2842 -0.0001 -0.3474
 5380SOL    HW120708   0.922   3.932   2.268  2.7024 -1.5935 -0.9606
 5380SOL    HW220709   0.959   4.018   2.150 -0.2681  0.3467 -0.5256
 5380SOL     MW20710   0.914   3.952   2.184  0.5231 -0.1597 -0.4487
 5381SOL     OW20711   1.132   0.850   5.498 -0.5527 -0.1451 -0.0698
 5381SOL    HW120712   1.178   0.853   5.413  0.0255 -0.6991  0.2184
 5381SOL    HW220713   1.081   0.769   5.494 -0.2767 -0.3324  0.2394
 5381SOL     MW20714   1.131   0.840   5.486 -0.4433 -0.2399  0.0072
 5382SOL     OW20715   4.122   1.453   3.306 -0.3362  0.4681 -0.9802
 5382SOL    HW120716   4.150   1.404   3.228  1.6912  1.0026 -0.6221
 5382SOL    HW220717   4.065   1.392   3.353  1.3792 -1.2158 -1.0343
 5382SOL     MW20718   4.118   1.439   3.302  0.1435  0.3209 -0.9413
 5383SOL     OW20719   4.236   3.057   4.741  0.4436  0.6396  0.2277
 5383SOL    HW120720   4.195   3.106   4.669  1.1606  0.1806 -0.5005
 5383SOL    HW220721   4.166   3.000   4.773 -0.1564  1.5254  0.5239
 5383SOL     MW20722   4.222   3.056   4.736  0.4582  0.6943  0.1721
 5384SOL     OW20723   3.075   3.561   2.631 -0.0227  0.2596 -0.4890
 5384SOL    HW120724   3.037   3.635   2.584 -1.4609 -1.0888 -1.4672
 5384SOL    HW220725   3.000   3.511   2.663  0.8928  1.6298  4.1198
 5384SOL     MW20726   3.061   3.564   2.629 -0.0894  0.2625 -0.0243
 5385SOL     OW20727   5.979   2.322   1.891 -0.0406 -0.0525  0.2011
 5385SOL    HW120728   5.909   2.371   1.848 -1.2795  0.0431  2.2607
 5385SOL    HW220729   5.999   2.250   1.831 -1.2717  0.4424 -0.8153
 5385SOL     MW20730   5.973   2.319   1.878 -0.3567  0.0231  0.3346
 5386SOL     OW20731   3.445   1.918   0.993  1.0093 -0.2693  0.2684
 5386SOL    HW120732   3.374   1.977   1.015  1.0035  0.1736 -0.9283
 5386SOL    HW220733   3.424   1.885   0.906  2.3842  0.0607 -0.2051
 5386SOL     MW20734   3.433   1.921   0.985  1.1845 -0.1704  0.0545
 5387SOL     OW20735   3.079   2.867   4.766  0.1250  0.7523 -0.0077
 5387SOL    HW120736   3.158   2.876   4.711  1.2237 -0.9935  1.2239
 5387SOL    HW220737   3.107   2.898   4.852 -0.7796  0.8438  0.2534
 5387SOL     MW20738   3.093   2.872   4.770  0.1500  0.5405  0.1831
 5388SOL     OW20739   0.479   4.228   3.107  0.3117  0.5593 -0.3877
 5388SOL    HW120740   0.566   4.264   3.127  0.6433  0.7013 -2.0039
 5388SOL    HW220741   0.494   4.174   3.030 -0.6079 -1.3133  0.7335
 5388SOL     MW20742   0.492   4.226   3.100  0.2365  0.3381 -0.4511
 5389SOL     OW20743   0.024   0.544   5.251 -0.0635  0.2619  0.0420
 5389SOL    HW120744   0.020   0.456   5.213  0.6681  0.2821 -0.0840
 5389SOL    HW220745  -0.043   0.543   5.319  0.3192 -0.5872  0.4187
 5389SOL     MW20746   0.015   0.532   5.255  0.0787  0.1559  0.0744
 5390SOL     OW20747   0.014   0.731   3.990  0.2903  0.7700 -0.0973
 5390SOL    HW120748   0.004   0.772   3.904  0.4618 -2.1127 -1.5649
 5390SOL    HW220749  -0.069   0.686   4.004  0.4322  0.8576  1.0757
 5390SOL     MW20750   0.002   0.731   3.980  0.3304  0.4121 -0.1349
 5391SOL     OW20751   3.840   1.024   3.644  0.5467  0.7395 -0.0061
 5391SOL    HW120752   3.785   0.954   3.677  1.6476  0.8049  2.0244
 5391SOL    HW220753   3.786   1.103   3.653  0.2815  0.5352  0.1922
 5391SOL     MW20754   3.826   1.025   3.649  0.6537  0.7216  0.2789
 5392SOL     OW20755   3.257   0.168   2.883 -0.3003 -0.1885 -0.7504
 5392SOL    HW120756   3.245   0.096   2.821  1.3232 -0.3715 -0.8891
 5392SOL    HW220757   3.204   0.239   2.849 -1.0135 -0.9467 -1.2423
 5392SOL     MW20758   3.249   0.168   2.871 -0.1838 -0.3090 -0.8311
 5393SOL     OW20759   4.784   5.154   4.636  0.0989 -0.1310 -0.1880
 5393SOL    HW120760   4.797   5.192   4.723  0.4920 -1.6282  0.4337
 5393SOL    HW220761   4.705   5.196   4.603  0.3223  0.9423  0.6198
 5393SOL     MW20762   4.775   5.164   4.643  0.1783 -0.1855 -0.0048
 5394SOL     OW20763   0.542   1.310   3.394 -0.8622 -0.2922 -0.1742
 5394SOL    HW120764   0.458   1.271   3.419 -0.7969 -0.7021 -0.5784
 5394SOL    HW220765   0.608   1.250   3.428 -0.7957 -1.4522 -2.2603
 5394SOL     MW20766   0.540   1.297   3.401 -0.8454 -0.4932 -0.4930
 5395SOL     OW20767   5.837   3.794   2.870 -0.5637 -0.4370 -0.1115
 5395SOL    HW120768   5.849   3.701   2.890 -0.1882 -0.9546 -2.5742
 5395SOL    HW220769   5.831   3.797   2.775 -1.3410  1.9934 -0.0056
 5395SOL     MW20770   5.838   3.782   2.861 -0.6156 -0.1924 -0.4132
 5396SOL     OW20771   4.323   4.489   5.334 -0.0421 -0.6344  0.3715
 5396SOL    HW120772   4.249   4.461   5.281  0.8367 -2.2113 -0.0593
 5396SOL    HW220773   4.400   4.463   5.283  0.8368 -2.7260  2.6483
 5396SOL     MW20774   4.324   4.482   5.321  0.1831 -1.1044  0.6080
 5397SOL     OW20775   4.764   0.587   4.355 -0.2218  0.4758  0.2786
 5397SOL    HW120776   4.757   0.645   4.280  0.2738 -0.1371 -0.2489
 5397SOL    HW220777   4.817   0.635   4.418  1.2636  0.1026 -0.6537
 5397SOL     MW20778   4.770   0.600   4.353  0.0315  0.3496  0.0916
 5398SOL     OW20779   0.905   1.972   0.138 -0.2354 -0.9755  0.3017
 5398SOL    HW120780   1.000   1.961   0.146 -0.4391 -2.4599  0.8481
 5398SOL    HW220781   0.881   2.028   0.212 -0.0494 -2.2694  1.3628
 5398SOL     MW20782   0.914   1.978   0.148 -0.2376 -1.3312  0.5075
 5399SOL     OW20783   4.455   3.938   0.422  0.0409 -0.3241  0.8409
 5399SOL    HW120784   4.534   3.889   0.398 -0.4288 -0.3455 -0.7396
 5399SOL    HW220785   4.487   4.025   0.444  0.4320 -0.0290 -0.8003
 5399SOL     MW20786   4.469   3.943   0.422  0.0310 -0.2890  0.4284
 5400SOL     OW20787   0.166   2.694   4.290 -0.3522 -0.1975  0.4416
 5400SOL    HW120788   0.139   2.778   4.328  1.9785  0.6028  0.4134
 5400SOL    HW220789   0.138   2.700   4.198 -0.5901  0.3749  0.5480
 5400SOL     MW20790   0.159   2.706   4.283 -0.0843 -0.0219  0.4516
 5401SOL     OW20791   4.727   2.727   3.858 -0.0597 -0.0383 -0.2489
 5401SOL    HW120792   4.636   2.737   3.830 -0.1745 -0.6324 -0.0981
 5401SOL    HW220793   4.757   2.817   3.874 -0.5108  0.1851 -0.6313
 5401SOL     MW20794   4.719   2.740   3.856 -0.1321 -0.0858 -0.2787
 5402SOL     OW20795   2.650   4.832   2.129  0.0420  0.3787 -0.2537
 5402SOL    HW120796   2.619   4.827   2.039 -2.2668  0.6739  0.4799
 5402SOL    HW220797   2.653   4.741   2.159  0.5602  0.2999 -0.5391
 5402SOL     MW20798   2.646   4.820   2.121 -0.1874  0.4067 -0.1965
 5403SOL     OW20799   1.968   0.535   4.327  0.0107  0.1433 -0.2561
 5403SOL    HW120800   1.898   0.565   4.385  2.1462  2.0852  1.4185
 5403SOL    HW220801   1.957   0.440   4.323 -2.8447  0.4334 -0.2415
 5403SOL     MW20802   1.958   0.526   4.334 -0.0814  0.4290 -0.0396
 5404SOL     OW20803   3.515   5.483   0.727 -0.2811  0.3678  0.2258
 5404SOL    HW120804   3.470   5.462   0.808 -1.0513  1.8512  0.1866
 5404SOL    HW220805   3.594   5.529   0.755  0.0400 -0.1521  0.1825
 5404SOL     MW20806   3.520   5.486   0.741 -0.3386  0.4907  0.2153
 5405SOL     OW20807   5.490   4.068   4.401 -0.4404  0.2132 -0.1396
 5405SOL    HW120808   5.415   4.093   4.347 -0.0855  1.7270  0.0584
 5405SOL    HW220809   5.469   4.101   4.488  1.4001  2.5598 -0.5382
 5405SOL     MW20810   5.478   4.075   4.405 -0.1593  0.7071 -0.1655
 5406SOL     OW20811   0.016   1.954   1.046 -0.3466 -0.3319  0.5178
 5406SOL    HW120812  -0.067   1.967   1.093 -0.3416  1.4594  0.0841
 5406SOL    HW220813  -0.002   1.984   0.957  0.8677  0.4310  0.5177
 5406SOL     MW20814   0.003   1.960   1.041 -0.1904 -0.0051  0.4623
 5407SOL     OW20815   1.743   0.492   4.139  0.2124  0.1594 -0.4259
 5407SOL    HW120816   1.798   0.570   4.139  0.4560  0.0123  1.9268
 5407SOL    HW220817   1.691   0.499   4.219 -0.2700 -1.7332 -0.5503
 5407SOL     MW20818   1.744   0.503   4.149  0.1819 -0.1017 -0.1407
 5408SOL     OW20819   2.640   0.766   0.084  0.0668 -0.6437  0.3117
 5408SOL    HW120820   2.654   0.686   0.034  1.4951 -1.2667  1.6773
 5408SOL    HW220821   2.723   0.814   0.076  0.3984 -0.8566  2.2384
 5408SOL     MW20822   2.652   0.762   0.077  0.2923 -0.7507  0.7331
 5409SOL     OW20823   2.444   2.511   4.617  0.0804 -0.2287 -0.2238
 5409SOL    HW120824   2.515   2.572   4.603 -0.9526  1.2432  0.7962
 5409SOL    HW220825   2.365   2.558   4.589 -0.6001 -1.5199 -0.5470
 5409SOL     MW20826   2.443   2.524   4.611 -0.1388 -0.2058 -0.1345
 5410SOL     OW20827   0.901   5.613   4.896  0.1901 -0.4013  0.2766
 5410SOL    HW120828   0.885   5.600   4.802 -0.5370 -0.3102  0.3792
 5410SOL    HW220829   0.842   5.685   4.920  1.7442  0.8543  0.4135
 5410SOL     MW20830   0.891   5.621   4.887  0.2961 -0.2294  0.3071
 5411SOL     OW20831   1.201   2.738   5.792 -0.5223  0.0130 -0.0367
 5411SOL    HW120832   1.268   2.699   5.736 -0.5841 -0.8149  0.4607
 5411SOL    HW220833   1.248   2.800   5.848  0.1123 -1.8188  1.5068
 5411SOL     MW20834   1.215   2.741   5.792 -0.4489 -0.3273  0.2241
 5412SOL     OW20835   4.899   4.781   0.646 -0.4478 -0.4805 -0.7305
 5412SOL    HW120836   4.941   4.728   0.579 -1.3413  0.1979 -1.8317
 5412SOL    HW220837   4.822   4.731   0.673 -0.2423 -0.6246 -0.4095
 5412SOL     MW20838   4.895   4.768   0.641 -0.5360 -0.4120 -0.8305
 5413SOL     OW20839   5.964   2.014   2.350  0.5245 -0.1022 -0.0959
 5413SOL    HW120840   5.982   1.921   2.357  1.2799  0.1003  0.6973
 5413SOL    HW220841   5.969   2.033   2.256  1.2975 -0.6725 -0.1697
 5413SOL     MW20842   5.967   2.005   2.339  0.7200 -0.1493 -0.0041
 5414SOL     OW20843   3.881   1.129   3.317  0.1861  0.1871  0.3079
 5414SOL    HW120844   3.966   1.126   3.360  0.5715  1.0263 -0.3883
 5414SOL    HW220845   3.882   1.210   3.267 -0.9258  0.0745  0.0942
 5414SOL     MW20846   3.892   1.139   3.316  0.0932  0.2801  0.1912
 5415SOL     OW20847   1.525   1.636   5.272  0.2939  0.6440 -0.3795
 5415SOL    HW120848   1.452   1.576   5.253  0.6048  0.4528 -1.0026
 5415SOL    HW220849   1.493   1.692   5.343  0.3258 -0.8449  0.8241
 5415SOL     MW20850   1.511   1.636   5.278  0.3378  0.4288 -0.3047
 5416SOL     OW20851   2.096   2.864   2.157 -0.0661 -0.7527  0.0113
 5416SOL    HW120852   2.091   2.877   2.063 -0.9269  2.2453  0.4033
 5416SOL    HW220853   2.005   2.859   2.186  0.0498  1.8673  1.0309
 5416SOL     MW20854   2.084   2.865   2.149 -0.1616 -0.0334  0.1922
 5417SOL     OW20855   5.927   4.846   4.262 -0.1198 -0.0295  0.2251
 5417SOL    HW120856   5.999   4.819   4.206  0.6543  0.8175  0.7996
 5417SOL    HW220857   5.962   4.918   4.314 -1.3767  0.4112  0.5001
 5417SOL     MW20858   5.941   4.852   4.261 -0.1812  0.1354  0.3343
 5418SOL     OW20859   5.717   4.679   0.352  0.5175 -0.1014  0.1733
 5418SOL    HW120860   5.752   4.596   0.321  0.1337  0.1671 -1.0042
 5418SOL    HW220861   5.692   4.726   0.273  0.0262  0.8300  0.8626
 5418SOL     MW20862   5.718   4.675   0.338  0.4053  0.0520  0.1108
 5419SOL     OW20863   1.771   2.720   3.568 -0.3468  1.0052  0.0146
 5419SOL    HW120864   1.776   2.635   3.525 -0.6422  0.8228  0.3379
 5419SOL    HW220865   1.836   2.774   3.523  0.6535  0.2700  0.5803
 5419SOL     MW20866   1.780   2.716   3.557 -0.2565  0.8876  0.1285
 5420SOL     OW20867   1.682   2.106   3.450 -0.8866 -0.2975  0.1537
 5420SOL    HW120868   1.755   2.090   3.391 -1.3181  0.2661 -0.5384
 5420SOL    HW220869   1.658   2.197   3.434 -2.0214 -0.6058  0.0769
 5420SOL     MW20870   1.688   2.116   3.441 -1.0872 -0.2646  0.0556
 5421SOL     OW20871   5.948   4.317   0.582 -0.0604 -0.0275  0.2449
 5421SOL    HW120872   5.882   4.299   0.515  1.5782  0.9534 -1.6708
 5421SOL    HW220873   5.902   4.366   0.649 -1.4149  0.1393 -0.7949
 5421SOL     MW20874   5.934   4.321   0.582 -0.0238  0.1192 -0.1335
 5422SOL     OW20875   5.814   5.185   4.009  0.2481  0.2316 -1.2047
 5422SOL    HW120876   5.735   5.237   4.022  0.8641  1.4705 -2.3002
 5422SOL    HW220877   5.790   5.121   3.942 -0.9223 -1.8294  1.1153
 5422SOL     MW20878   5.801   5.183   4.002  0.1769  0.1268 -1.0481
 5423SOL     OW20879   0.546   4.653   5.111  0.1037 -0.0296 -0.2484
 5423SOL    HW120880   0.617   4.681   5.169  0.4513 -0.9288 -0.2258
 5423SOL    HW220881   0.467   4.660   5.164  0.4486 -1.0458  0.3987
 5423SOL     MW20882   0.545   4.658   5.125  0.1924 -0.2751 -0.1626
 5424SOL     OW20883   1.472   4.096   4.165  0.6073 -0.4937  0.1511
 5424SOL    HW120884   1.566   4.115   4.169  0.1180  2.6627 -1.4420
 5424SOL    HW220885   1.441   4.109   4.254  1.5282 -0.6680  0.5024
 5424SOL     MW20886   1.480   4.100   4.177  0.6626 -0.1121 -0.0076
 5425SOL     OW20887   0.292   1.147   1.203  0.3953  0.1997 -0.0653
 5425SOL    HW120888   0.349   1.220   1.180 -1.2419  1.7221  0.5073
 5425SOL    HW220889   0.327   1.114   1.286  1.5343 -0.0878 -0.6590
 5425SOL     MW20890   0.303   1.153   1.211  0.3316  0.3577 -0.0681
 5426SOL     OW20891   5.377   3.479   5.832 -0.0940 -0.2981  0.4608
 5426SOL    HW120892   5.419   3.537   5.769 -0.4394  1.2515  1.6257
 5426SOL    HW220893   5.447   3.456   5.893  0.0984 -1.3275 -0.1314
 5426SOL     MW20894   5.392   3.483   5.832 -0.1140 -0.2315  0.5341
 5427SOL     OW20895   2.716   5.125   4.583 -0.2920 -0.4771  0.6160
 5427SOL    HW120896   2.770   5.102   4.659 -1.1166  0.0156  1.3466
 5427SOL    HW220897   2.776   5.175   4.526  0.6808 -1.9093  0.3512
 5427SOL     MW20898   2.731   5.128   4.585 -0.2732 -0.5975  0.6757
 5428SOL     OW20899   4.116   3.530   0.709 -0.2829 -0.7208 -0.2631
 5428SOL    HW120900   4.117   3.598   0.777 -0.2794 -0.0912 -0.8874
 5428SOL    HW220901   4.028   3.534   0.672 -0.6119 -1.7511  0.3802
 5428SOL     MW20902   4.105   3.539   0.713 -0.3247 -0.7722 -0.2607
 5429SOL     OW20903   4.803   0.776   1.761 -0.1820 -0.8713 -0.0828
 5429SOL    HW120904   4.890   0.781   1.801 -0.6006 -1.6216  0.9277
 5429SOL    HW220905   4.820   0.772   1.667  0.7910  2.2133 -0.1221
 5429SOL     MW20906   4.816   0.776   1.754 -0.1116 -0.5724  0.0416
 5430SOL     OW20907   1.912   5.371   2.492 -0.4077  0.1390 -0.4425
 5430SOL    HW120908   1.987   5.413   2.535 -0.7409 -0.7791  1.0571
 5430SOL    HW220909   1.837   5.423   2.518 -0.3872  0.7343 -1.5143
 5430SOL     MW20910   1.912   5.383   2.501 -0.4478  0.0973 -0.3877
 5431SOL     OW20911   2.399   1.200   3.716  0.1441  0.1264  0.2825
 5431SOL    HW120912   2.319   1.151   3.731 -0.5258  1.4778  1.2652
 5431SOL    HW220913   2.469   1.135   3.720 -0.8954 -1.0418 -0.4891
 5431SOL     MW20914   2.398   1.186   3.718 -0.0749  0.1500  0.3097
 5432SOL     OW20915   0.549   2.287   1.948 -0.9345  0.9468  0.5197
 5432SOL    HW120916   0.504   2.370   1.959  0.4368  1.7687  0.0667
 5432SOL    HW220917   0.590   2.293   1.862 -0.6547 -0.1025  0.5710
 5432SOL     MW20918   0.549   2.298   1.939 -0.7231  0.9179  0.4683
 5433SOL     OW20919   2.903   2.610   5.129  0.0919  0.4488  0.3481
 5433SOL    HW120920   2.998   2.619   5.133  0.2911 -1.5941  0.9401
 5433SOL    HW220921   2.874   2.611   5.221 -0.4689  1.1983  0.1683
 5433SOL     MW20922   2.911   2.611   5.141  0.0458  0.2830  0.4010
 5434SOL     OW20923   2.147   4.555   4.137 -0.5263 -0.1920 -0.6432
 5434SOL    HW120924   2.203   4.489   4.178  0.2751  1.4474  0.9932
 5434SOL    HW220925   2.072   4.563   4.196 -1.8872 -1.4767 -2.1770
 5434SOL     MW20926   2.144   4.548   4.150 -0.5980 -0.1464 -0.6304
 5435SOL     OW20927   1.748   1.797   4.316 -0.0845  0.3569  0.8633
 5435SOL    HW120928   1.745   1.812   4.222  0.9174 -0.8990  0.6207
 5435SOL    HW220929   1.801   1.869   4.350  2.6421 -1.1491  0.0036
 5435SOL     MW20930   1.754   1.808   4.308  0.3928  0.0035  0.7224
 5436SOL     OW20931   3.613   0.265   5.684 -0.3276  0.2494 -0.1853
 5436SOL    HW120932   3.525   0.302   5.690 -0.8742 -1.1574  0.5748
 5436SOL    HW220933   3.667   0.324   5.738 -1.4766 -0.8699  2.2806
 5436SOL     MW20934   3.609   0.277   5.692 -0.5448 -0.0739  0.2275
 5437SOL     OW20935   5.315   0.331   3.148  0.7745  0.4362  0.5410
 5437SOL    HW120936   5.369   0.253   3.144  1.2498  0.8249 -0.9595
 5437SOL    HW220937   5.370   0.400   3.112 -1.2155  0.5472 -2.4422
 5437SOL     MW20938   5.329   0.330   3.143  0.5813  0.5001 -0.0327
 5438SOL     OW20939   0.799   1.114   1.889 -0.8547 -0.0704  0.2448
 5438SOL    HW120940   0.849   1.040   1.924  0.9679  1.5507  1.1425
 5438SOL    HW220941   0.724   1.073   1.844  0.9059 -2.5115 -0.5668
 5438SOL     MW20942   0.795   1.099   1.888 -0.3961 -0.1754  0.2558
 5439SOL     OW20943   3.648   4.898   5.031  0.1224 -0.4322  0.0085
 5439SOL    HW120944   3.575   4.861   4.981  0.6928 -0.2151 -1.0036
 5439SOL    HW220945   3.726   4.856   4.993  0.5763 -0.1085  0.5781
 5439SOL     MW20946   3.649   4.888   5.020  0.2537 -0.3629 -0.0482
 5440SOL     OW20947   0.641   5.850   0.443  0.4340 -0.1682 -0.5567
 5440SOL    HW120948   0.620   5.934   0.402  0.3146  2.0184  3.7335
 5440SOL    HW220949   0.732   5.858   0.469  0.6096 -1.6366 -0.7080
 5440SOL     MW20950   0.650   5.862   0.441  0.4413 -0.0768 -0.0269
 5441SOL     OW20951   3.085   5.742   0.946  0.1562  0.2207  0.2718
 5441SOL    HW120952   3.166   5.784   0.918  0.3638 -0.0589  0.4510
 5441SOL    HW220953   3.056   5.792   1.022  0.6653 -0.2664  0.7846
 5441SOL     MW20954   3.091   5.754   0.952  0.2480  0.1221  0.3604
 5442SOL     OW20955   3.161   1.562   3.574 -0.0737 -0.6035  0.4332
 5442SOL    HW120956   3.095   1.621   3.537  0.1225  0.7690  2.1955
 5442SOL    HW220957   3.208   1.615   3.638  0.1653 -2.6449  2.0324
 5442SOL     MW20958   3.158   1.576   3.577 -0.0181 -0.6891  0.8636
 5443SOL     OW20959   5.650   4.122   4.652  0.2192  0.0363 -0.2975
 5443SOL    HW120960   5.576   4.181   4.647 -0.4458 -0.9138 -1.9200
 5443SOL    HW220961   5.726   4.179   4.662 -0.5167  1.0961 -0.7290
 5443SOL     MW20962   5.651   4.137   4.653  0.0391  0.0505 -0.5603
 5444SOL     OW20963   5.015   5.415   0.539 -0.0078 -0.3800 -0.0310
 5444SOL    HW120964   4.980   5.326   0.542  0.2275 -0.5569 -2.0910
 5444SOL    HW220965   5.015   5.443   0.630 -0.2715 -2.4122  0.6265
 5444SOL     MW20966   5.010   5.407   0.551 -0.0114 -0.6633 -0.2106
 5445SOL     OW20967   2.572   1.818   1.436  1.0479  0.2661  0.6655
 5445SOL    HW120968   2.507   1.888   1.438  0.7538  0.0149 -0.2283
 5445SOL    HW220969   2.527   1.743   1.396  2.0711  0.2880 -0.5543
 5445SOL     MW20970   2.558   1.817   1.431  1.1411  0.2370  0.3948
 5446SOL     OW20971   2.597   2.329   2.345 -0.1120 -0.1156  0.1591
 5446SOL    HW120972   2.606   2.252   2.401  1.6388  0.4949  0.7494
 5446SOL    HW220973   2.521   2.311   2.291  0.0865 -2.1162  0.5276
 5446SOL     MW20974   2.589   2.317   2.345  0.1373 -0.2937  0.2820
 5447SOL     OW20975   1.433   4.616   1.247 -0.4458  0.3407 -0.4195
 5447SOL    HW120976   1.477   4.688   1.293  0.0191 -0.0261 -0.2864
 5447SOL    HW220977   1.376   4.659   1.184 -1.4607  0.8710  0.8339
 5447SOL     MW20978   1.431   4.631   1.245 -0.5161  0.3619 -0.2420
 5448SOL     OW20979   1.181   2.205   2.435 -0.5469 -0.0396 -0.0516
 5448SOL    HW120980   1.131   2.155   2.500  0.6744  0.6108  1.4222
 5448SOL    HW220981   1.237   2.141   2.392 -0.8317 -0.3528  0.0422
 5448SOL     MW20982   1.182   2.190   2.438 -0.4270  0.0033  0.1490
 5449SOL     OW20983   3.881   1.483   4.327  0.0867 -0.4553  0.6492
 5449SOL    HW120984   3.828   1.421   4.278  1.8354 -1.4674 -0.0125
 5449SOL    HW220985   3.817   1.541   4.369 -1.4857 -0.6461 -1.3841
 5449SOL     MW20986   3.866   1.483   4.326  0.1090 -0.6093  0.3042
 5450SOL     OW20987   5.869   1.284   3.193  0.6018  0.6379  0.1204
 5450SOL    HW120988   5.878   1.197   3.153 -0.9391 -0.0163  1.1576
 5450SOL    HW220989   5.927   1.281   3.269 -0.4902  0.0251  0.9388
 5450SOL     MW20990   5.878   1.272   3.198  0.2646  0.4756  0.3579
 5451SOL     OW20991   2.381   2.565   0.869  0.4725 -0.1955  0.3982
 5451SOL    HW120992   2.378   2.643   0.924  0.6036 -1.4167  2.1678
 5451SOL    HW220993   2.471   2.533   0.877  1.4376  1.3370 -3.0353
 5451SOL     MW20994   2.392   2.571   0.877  0.6132 -0.1557  0.1853
 5452SOL     OW20995   1.011   3.823   4.197  0.3279 -0.4892 -0.7027
 5452SOL    HW120996   1.097   3.865   4.196 -0.0640  0.4452  1.2400
 5452SOL    HW220997   0.949   3.896   4.193 -0.3632 -1.0356 -0.1502
 5452SOL     MW20998   1.014   3.838   4.197  0.1893 -0.4394 -0.3824
 5453SOL     OW20999   5.009   2.732   5.012 -0.0332 -0.4381 -0.2658
 5453SOL    HW121000   4.999   2.761   4.922 -0.6002  0.5971  0.1231
 5453SOL    HW221001   4.926   2.756   5.054  0.1898 -0.9986  0.5086
 5453SOL     MW21002   4.997   2.739   5.006 -0.0772 -0.3774 -0.1168
 5454SOL     OW21003   3.805   1.127   4.891 -0.4257  1.1802  0.0690
 5454SOL    HW121004   3.835   1.176   4.814  3.1324  1.9093  1.8332
 5454SOL    HW221005   3.809   1.035   4.864 -2.0992  1.5550 -1.5509
 5454SOL     MW21006   3.809   1.122   4.877 -0.1845  1.3214  0.0877
 5455SOL     OW21007   2.189   1.045   2.842 -0.3096 -0.8435 -0.3630
 5455SOL    HW121008   2.201   1.010   2.754  1.3264 -1.0843 -0.0657
 5455SOL    HW221009   2.270   1.023   2.888 -1.1380 -0.7136  1.2065
 5455SOL     MW21010   2.201   1.038   2.837 -0.2058 -0.8576 -0.1240
 5456SOL     OW21011   5.668   1.785   0.564 -0.2902 -0.1145 -0.2295
 5456SOL    HW121012   5.734   1.732   0.518 -0.3535  0.3360 -0.8427
 5456SOL    HW221013   5.679   1.873   0.528 -1.4754 -0.1122 -0.5965
 5456SOL     MW21014   5.678   1.789   0.554 -0.4501 -0.0566 -0.3550
 5457SOL     OW21015   4.130   0.951   1.404 -0.1167  0.1208  0.2591
 5457SOL    HW121016   4.194   0.989   1.464 -0.8650  0.4123  0.8860
 5457SOL    HW221017   4.149   0.992   1.320 -0.4441  1.3673  0.7699
 5457SOL     MW21018   4.140   0.961   1.401 -0.2546  0.3177  0.4048
 5458SOL     OW21019   5.986   1.357   1.907  0.0348 -0.3564 -0.0317
 5458SOL    HW121020   5.961   1.296   1.837  0.7756 -1.5036  0.6733
 5458SOL    HW221021   6.058   1.313   1.952 -0.3511  0.4218  1.3814
 5458SOL     MW21022   5.992   1.343   1.903  0.0801 -0.4036  0.2394
 5459SOL     OW21023   5.610   1.008   2.231 -0.3438  0.4190 -0.3850
 5459SOL    HW121024   5.542   1.075   2.232  0.7814  1.5691  1.7743
 5459SOL    HW221025   5.636   1.001   2.139 -1.7416  1.6222 -0.8909
 5459SOL     MW21026   5.605   1.015   2.220 -0.3786  0.7201 -0.1733
 5460SOL     OW21027   3.519   2.979   4.447  0.4358 -0.0433 -0.3257
 5460SOL    HW121028   3.603   2.939   4.472  0.6185  0.0701 -0.7552
 5460SOL    HW221029   3.482   2.918   4.384 -1.4047 -1.8364  2.3599
 5460SOL     MW21030   3.525   2.966   4.442  0.2236 -0.2582 -0.0367
 5461SOL     OW21031   1.501   0.447   2.911 -0.2106 -0.2238  0.1304
 5461SOL    HW121032   1.530   0.451   3.002 -0.7729  0.5969  0.2754
 5461SOL    HW221033   1.498   0.538   2.882  0.3125 -0.5030 -0.8211
 5461SOL     MW21034   1.504   0.459   2.919 -0.2158 -0.1545  0.0272
 5462SOL     OW21035   0.134   1.496   1.699  0.6063 -0.3254  0.7354
 5462SOL    HW121036   0.106   1.464   1.614  0.1603  0.2239  0.6702
 5462SOL    HW221037   0.075   1.455   1.762  0.5366 -0.2414  0.7242
 5462SOL     MW21038   0.123   1.487   1.696  0.5403 -0.2444  0.7255
 5463SOL     OW21039   0.486   5.671   5.442 -0.2328  0.1013  0.3127
 5463SOL    HW121040   0.399   5.692   5.409  0.4899  1.2705 -0.8812
 5463SOL    HW221041   0.526   5.617   5.374  0.3557  0.4242  0.4000
 5463SOL     MW21042   0.480   5.667   5.429 -0.0649  0.2923  0.1712
 5464SOL     OW21043   0.579   1.540   1.551 -0.0361  0.0119  0.0363
 5464SOL    HW121044   0.576   1.604   1.480  1.1931  1.7762  1.5396
 5464SOL    HW221045   0.571   1.455   1.507  1.1018  1.0435 -2.2284
 5464SOL     MW21046   0.578   1.537   1.536  0.2669  0.3698 -0.0613
 5465SOL     OW21047   3.443   2.330   3.250 -0.4990  0.0351  0.4069
 5465SOL    HW121048   3.527   2.292   3.222 -0.0029  0.5038  1.2245
 5465SOL    HW221049   3.386   2.255   3.264 -0.1089 -0.3104  0.1602
 5465SOL     MW21050   3.447   2.316   3.248 -0.3855  0.0510  0.4799
 5466SOL     OW21051   4.597   5.357   0.654 -0.1258 -0.3118  0.2576
 5466SOL    HW121052   4.637   5.341   0.739 -1.2637  1.1819  1.0907
 5466SOL    HW221053   4.597   5.453   0.645 -0.2503 -0.4417 -1.3110
 5466SOL     MW21054   4.602   5.367   0.663 -0.2875 -0.1369  0.1634
 5467SOL     OW21055   2.729   1.719   0.903 -0.0712  0.1260  0.8477
 5467SOL    HW121056   2.694   1.808   0.907 -0.6348  0.0783 -1.8764
 5467SOL    HW221057   2.730   1.698   0.809 -2.1104 -3.5795  1.5640
 5467SOL     MW21058   2.724   1.728   0.891 -0.4039 -0.3545  0.5906
 5468SOL     OW21059   2.096   3.605   4.435 -0.7908  0.2352 -0.2879
 5468SOL    HW121060   2.058   3.549   4.503  1.6841  1.4478  2.1890
 5468SOL    HW221061   2.122   3.685   4.481 -0.8921  1.9514 -3.0686
 5468SOL     MW21062   2.095   3.608   4.450 -0.4871  0.6101 -0.3266
 5469SOL     OW21063   0.762   5.695   4.417  0.2615  0.0262 -0.3197
 5469SOL    HW121064   0.697   5.626   4.424 -0.5557  0.8454  0.1717
 5469SOL    HW221065   0.832   5.668   4.477  1.1908 -1.7128 -2.0941
 5469SOL     MW21066   0.763   5.683   4.425  0.2759 -0.0916 -0.4845
 5470SOL     OW21067   3.995   1.628   5.151  0.1740 -0.3086  0.1810
 5470SOL    HW121068   3.935   1.622   5.076 -0.7132 -1.8373  0.9863
 5470SOL    HW221069   4.075   1.666   5.115 -0.6350  0.0398 -1.3020
 5470SOL     MW21070   3.997   1.632   5.137 -0.0432 -0.4597  0.0944
 5471SOL     OW21071   4.770   0.704   0.179 -0.4638  0.2848  0.3387
 5471SOL    HW121072   4.689   0.682   0.224 -0.6104  0.3896  0.1253
 5471SOL    HW221073   4.801   0.784   0.222 -0.9071  0.7100 -0.1386
 5471SOL     MW21074   4.764   0.711   0.190 -0.5393  0.3527  0.2503
 5472SOL     OW21075   3.121   4.699   0.233  0.2238  0.0124  0.4820
 5472SOL    HW121076   3.126   4.617   0.282 -2.5730 -1.3652 -1.4311
 5472SOL    HW221077   3.185   4.688   0.162  1.1832  0.2686  1.2941
 5472SOL     MW21078   3.130   4.687   0.230 -0.0114 -0.1311  0.3410
 5473SOL     OW21079   5.866   4.208   0.134 -0.3395 -0.4621  0.3661
 5473SOL    HW121080   5.868   4.244   0.046  2.8102 -1.0971  0.1008
 5473SOL    HW221081   5.819   4.125   0.125  1.5641 -1.4148 -1.1235
 5473SOL     MW21082   5.861   4.202   0.122  0.3076 -0.6657  0.1415
 5474SOL     OW21083   1.513   0.266   0.930  0.3145 -0.0639 -0.0026
 5474SOL    HW121084   1.462   0.346   0.942  0.8061  0.0821  1.1834
 5474SOL    HW221085   1.526   0.260   0.835 -0.8195  0.5697 -0.2069
 5474SOL     MW21086   1.508   0.276   0.919  0.2322  0.0359  0.1230
 5475SOL     OW21087   2.799   0.814   3.740  0.1822 -0.1632  0.7730
 5475SOL    HW121088   2.879   0.860   3.765  0.1224  0.5319 -0.2785
 5475SOL    HW221089   2.728   0.874   3.765  0.0468 -0.2505  0.5978
 5475SOL     MW21090   2.800   0.828   3.747  0.1571 -0.0854  0.6161
 5476SOL     OW21091   5.433   0.824   2.526  0.3468  0.0907 -0.1920
 5476SOL    HW121092   5.349   0.838   2.569  0.1806  2.0169 -1.1116
 5476SOL    HW221093   5.485   0.776   2.591 -1.7558 -1.9971  0.0193
 5476SOL     MW21094   5.429   0.819   2.540  0.0563  0.0700 -0.2830
 5477SOL     OW21095   2.231   4.673   0.159 -0.1360  0.7747  0.0722
 5477SOL    HW121096   2.210   4.747   0.215  1.5674  0.1162  1.6596
 5477SOL    HW221097   2.316   4.643   0.191 -0.0136 -0.8046 -1.6550
 5477SOL     MW21098   2.239   4.679   0.170  0.0978  0.4883  0.0543
 5478SOL     OW21099   1.981   2.193   3.938 -0.9137  0.7726 -0.1303
 5478SOL    HW121100   1.914   2.164   3.999 -0.1759 -0.0307  0.3165
 5478SOL    HW221101   2.050   2.230   3.993 -0.9336  1.4980 -0.5797
 5478SOL     MW21102   1.982   2.194   3.953 -0.8218  0.7625 -0.1307
 5479SOL     OW21103   0.184   2.459   4.456  0.0160  0.1710  0.2302
 5479SOL    HW121104   0.185   2.488   4.547 -0.9795 -2.0182  0.9929
 5479SOL    HW221105   0.194   2.539   4.405 -0.1305  1.5207  2.2421
 5479SOL     MW21106   0.186   2.473   4.461 -0.1302  0.0637  0.5856
 5480SOL     OW21107   3.871   2.295   2.109 -0.2737  0.2625  0.2639
 5480SOL    HW121108   3.820   2.245   2.173 -0.7190  2.4873  1.7159
 5480SOL    HW221109   3.816   2.295   2.030 -1.3367  0.4152  0.9840
 5480SOL     MW21110   3.857   2.288   2.107 -0.4668  0.5670  0.5419
 5481SOL     OW21111   5.520   0.574   4.137 -0.8757  0.0068  0.7579
 5481SOL    HW121112   5.438   0.525   4.132 -2.4888  2.7910 -2.3394
 5481SOL    HW221113   5.500   0.658   4.096  3.1089  1.3773  1.4003
 5481SOL     MW21114   5.507   0.578   4.131 -0.5722  0.5386  0.4435
 5482SOL     OW21115   2.823   0.562   0.382 -0.5737  0.4745 -0.3446
 5482SOL    HW121116   2.773   0.636   0.348  0.2577  1.2545  0.0988
 5482SOL    HW221117   2.817   0.495   0.314 -1.2283  0.9941 -0.8025
 5482SOL     MW21118   2.816   0.563   0.369 -0.5510  0.6409 -0.3465
 5483SOL     OW21119   5.971   0.903   1.009  0.3683  0.4459  0.2275
 5483SOL    HW121120   5.875   0.903   1.007  0.3912  0.9700 -1.1505
 5483SOL    HW221121   5.994   0.975   1.067 -0.0586  0.6990  0.0837
 5483SOL     MW21122   5.962   0.912   1.016  0.3161  0.5454  0.0329
 5484SOL     OW21123   2.375   0.644   1.370  0.1681  0.3682 -0.4551
 5484SOL    HW121124   2.342   0.670   1.456  1.0072  1.8743 -0.5862
 5484SOL    HW221125   2.455   0.695   1.357  0.6736 -0.6779 -1.6480
 5484SOL     MW21126   2.381   0.654   1.379  0.3405  0.4271 -0.6247
 5485SOL     OW21127   4.225   0.175   2.672  0.1546 -0.8073  0.2071
 5485SOL    HW121128   4.191   0.165   2.761  0.9242 -0.6853  0.5101
 5485SOL    HW221129   4.146   0.175   2.617 -0.4095  0.4510  0.9909
 5485SOL     MW21130   4.210   0.173   2.676  0.1807 -0.6306  0.3462
 5486SOL     OW21131   4.928   4.088   2.590 -0.1377 -0.2556 -0.4760
 5486SOL    HW121132   4.861   4.155   2.574 -1.7276 -1.4904  0.8038
 5486SOL    HW221133   4.888   4.007   2.558  1.5200 -0.7262 -1.4250
 5486SOL     MW21134   4.914   4.086   2.584 -0.1292 -0.4735 -0.4334
 5487SOL     OW21135   5.515   0.560   0.221  0.1379  0.3029  0.2134
 5487SOL    HW121136   5.479   0.633   0.171 -1.4879 -1.4850 -1.2900
 5487SOL    HW221137   5.583   0.524   0.164  0.8223  0.5049  0.8866
 5487SOL     MW21138   5.519   0.565   0.208  0.0167  0.0998  0.1071
 5488SOL     OW21139   5.875   3.429   2.053 -0.5987  0.0320 -0.5843
 5488SOL    HW121140   5.968   3.448   2.038 -0.3525 -0.8910 -0.2577
 5488SOL    HW221141   5.836   3.435   1.966  0.0219 -0.9136 -0.9463
 5488SOL     MW21142   5.882   3.432   2.040 -0.4878 -0.2069 -0.5887
 5489SOL     OW21143   3.390   1.776   4.694  0.4491 -0.3344 -0.1310
 5489SOL    HW121144   3.431   1.818   4.618 -0.0428 -0.7030 -0.6100
 5489SOL    HW221145   3.318   1.724   4.656 -1.4116  1.4728  0.8330
 5489SOL     MW21146   3.386   1.774   4.679  0.1478 -0.1502 -0.0682
 5490SOL     OW21147   2.325   3.645   5.242 -0.4809  0.6438 -0.3877
 5490SOL    HW121148   2.362   3.558   5.228 -0.2818  0.7049 -0.2361
 5490SOL    HW221149   2.254   3.651   5.178 -1.2109 -0.0594  0.3418
 5490SOL     MW21150   2.320   3.635   5.232 -0.5488  0.5615 -0.2747
 5491SOL     OW21151   5.022   4.483   0.747 -0.6609  0.4929  0.2391
 5491SOL    HW121152   5.074   4.557   0.713 -0.3997  0.7414  1.1643
 5491SOL    HW221153   4.931   4.509   0.731 -0.5043 -0.0097 -1.5272
 5491SOL     MW21154   5.017   4.496   0.740 -0.6075  0.4601  0.1314
 5492SOL     OW21155   3.298   4.671   2.080 -0.7073  0.1832  0.2906
 5492SOL    HW121156   3.371   4.658   2.019 -1.1615 -2.4159  0.2525
 5492SOL    HW221157   3.258   4.585   2.087  0.1023  0.0932  5.2863
 5492SOL     MW21158   3.302   4.659   2.073 -0.6616 -0.1612  0.9251
 5493SOL     OW21159   2.452   0.309   2.378  0.4895 -0.3567 -0.2780
 5493SOL    HW121160   2.499   0.290   2.459  1.1774 -0.7122 -0.7491
 5493SOL    HW221161   2.521   0.314   2.312 -0.0209  0.4028 -0.7558
 5493SOL     MW21162   2.467   0.307   2.380  0.5121 -0.3050 -0.3994
 5494SOL     OW21163   3.315   1.593   0.477  0.5970  0.3236 -0.0208
 5494SOL    HW121164   3.261   1.519   0.504  0.0067  1.0263  0.7460
 5494SOL    HW221165   3.268   1.630   0.402 -0.2396  1.2137  0.9335
 5494SOL     MW21166   3.302   1.588   0.471  0.4144  0.5274  0.1995
 5495SOL     OW21167   4.851   5.898   2.956 -0.2323  0.2454  0.6070
 5495SOL    HW121168   4.758   5.879   2.942 -0.5508  0.1647  2.7359
 5495SOL    HW221169   4.884   5.822   3.003  0.5396  0.9649  1.2420
 5495SOL     MW21170   4.843   5.886   2.960 -0.1736  0.3271  0.9608
 5496SOL     OW21171   5.348   3.846   3.176 -0.5396 -0.0730 -0.4079
 5496SOL    HW121172   5.413   3.854   3.106 -1.5398  0.5140 -1.2644
 5496SOL    HW221173   5.281   3.911   3.155 -1.2681 -0.4824  0.6313
 5496SOL     MW21174   5.348   3.855   3.164 -0.7606 -0.0503 -0.3846
 5497SOL     OW21175   1.521   4.788   5.209  0.0580  0.0447 -0.2084
 5497SOL    HW121176   1.425   4.788   5.206  0.0625 -0.2221 -0.3718
 5497SOL    HW221177   1.544   4.707   5.255  0.1950  0.3067  0.1875
 5497SOL     MW21178   1.512   4.778   5.214  0.0761  0.0439 -0.1788
 5498SOL     OW21179   1.366   3.602   3.637 -0.9712  0.2645  0.4105
 5498SOL    HW121180   1.379   3.559   3.553 -1.7431 -0.3933  0.6189
 5498SOL    HW221181   1.454   3.630   3.664 -0.8048  1.0266 -0.8980
 5498SOL     MW21182   1.379   3.600   3.630 -1.0487  0.2775  0.2694
 5499SOL     OW21183   2.272   2.413   3.597 -0.4470 -0.1853  0.6246
 5499SOL    HW121184   2.261   2.503   3.627 -1.3205 -0.4791  1.2088
 5499SOL    HW221185   2.189   2.370   3.618 -0.8508 -0.5710 -1.6773
 5499SOL     MW21186   2.260   2.419   3.604 -0.6106 -0.2723  0.4046
 5500SOL     OW21187   3.625   5.261   5.183  0.6398 -0.3100 -0.0413
 5500SOL    HW121188   3.543   5.299   5.154  1.3010  0.1306 -1.3706
 5500SOL    HW221189   3.602   5.172   5.211 -0.2473 -0.2550 -0.5919
 5500SOL     MW21190   3.612   5.255   5.183  0.6108 -0.2460 -0.2823
 5501SOL     OW21191   3.906   0.122   2.539 -0.6595  0.1662  0.4502
 5501SOL    HW121192   3.902   0.173   2.459  0.0102  0.4936  0.6170
 5501SOL    HW221193   3.832   0.152   2.591 -0.8984  0.1928  0.0934
 5501SOL     MW21194   3.896   0.132   2.536 -0.6044  0.2116  0.4258
 5502SOL     OW21195   1.487   2.984   5.628 -0.2384 -0.8256  0.1520
 5502SOL    HW121196   1.518   3.029   5.707  1.2407 -1.0791 -0.2686
 5502SOL    HW221197   1.487   3.052   5.560 -1.2458 -0.6737  0.2972
 5502SOL     MW21198   1.491   2.999   5.630 -0.1780 -0.8385  0.1168
 5503SOL     OW21199   3.176   5.980   2.423  0.0755 -0.7099  0.3069
 5503SOL    HW121200   3.258   6.012   2.385  0.8516 -1.1651  1.5643
 5503SOL    HW221201   3.175   5.887   2.403 -0.6571 -0.5139 -0.6129
 5503SOL     MW21202   3.186   5.972   2.415  0.0808 -0.7429  0.3502
 5504SOL     OW21203   4.313   5.057   2.496  0.3012 -0.0902  0.6770
 5504SOL    HW121204   4.336   4.995   2.565  1.4451 -0.5970 -0.1272
 5504SOL    HW221205   4.247   5.114   2.535 -0.3790 -1.4852  1.5995
 5504SOL     MW21206   4.308   5.056   2.510  0.3605 -0.3333  0.6919
 5505SOL     OW21207   5.965   2.140   5.212  0.6262  0.5273  0.2606
 5505SOL    HW121208   5.877   2.170   5.235 -0.6482 -1.6275 -1.5694
 5505SOL    HW221209   5.975   2.164   5.120  1.7990  0.3784  0.3448
 5505SOL     MW21210   5.955   2.147   5.203  0.6127  0.2322  0.0372
 5506SOL     OW21211   4.892   0.038   3.608 -0.6633 -0.2203  0.0547
 5506SOL    HW121212   4.854   0.031   3.696  0.6632  2.8112  0.9152
 5506SOL    HW221213   4.880   0.130   3.583  2.0462 -0.2453 -1.5138
 5506SOL     MW21214   4.885   0.049   3.616 -0.1469  0.1646 -0.0358
 5507SOL     OW21215   4.125   1.206   2.666  0.0806  0.0597 -0.1461
 5507SOL    HW121216   4.065   1.275   2.694 -2.5059 -1.2005 -2.4235
 5507SOL    HW221217   4.092   1.127   2.709  2.3416 -0.0512  1.5183
 5507SOL     MW21218   4.113   1.205   2.675  0.0391 -0.1158 -0.2248
 5508SOL     OW21219   3.619   2.910   5.603  0.1368  0.4860  0.4978
 5508SOL    HW121220   3.528   2.898   5.631 -0.1611  2.6249  0.5517
 5508SOL    HW221221   3.665   2.933   5.683  0.4466  0.7463  0.2445
 5508SOL     MW21222   3.613   2.911   5.617  0.1380  0.7935  0.4721
 5509SOL     OW21223   1.333   1.571   2.779 -0.7345  0.2867  0.6153
 5509SOL    HW121224   1.243   1.542   2.763 -0.0441 -0.8888 -1.3087
 5509SOL    HW221225   1.381   1.543   2.702  1.3143  0.8389  1.6595
 5509SOL     MW21226   1.327   1.564   2.767 -0.3840  0.2068  0.5028
 5510SOL     OW21227   0.548   4.735   0.180  0.8597 -0.0248 -0.6589
 5510SOL    HW121228   0.618   4.789   0.216  0.0917 -1.0917  2.6463
 5510SOL    HW221229   0.494   4.796   0.130  1.4916  1.7760  0.7899
 5510SOL     MW21230   0.550   4.750   0.178  0.8422  0.0696 -0.0503
 5511SOL     OW21231   1.029   5.742   3.068 -0.0760 -0.2360 -0.1403
 5511SOL    HW121232   1.091   5.673   3.094  0.3419  0.4511  0.6938
 5511SOL    HW221233   0.949   5.694   3.044  0.0622 -0.9868  0.8668
 5511SOL     MW21234   1.027   5.727   3.068 -0.0048 -0.2437  0.0954
 5512SOL     OW21235   2.197   1.675   5.743  0.6733 -0.2240  0.8323
 5512SOL    HW121236   2.135   1.705   5.677  0.9316  3.0375  1.9790
 5512SOL    HW221237   2.267   1.633   5.692 -0.1121  0.3969 -0.8054
 5512SOL     MW21238   2.198   1.673   5.728  0.6056  0.2730  0.7691
 5513SOL     OW21239   1.122   4.243   1.834 -0.3019 -0.2722 -0.0676
 5513SOL    HW121240   1.116   4.222   1.927  0.0560  2.7022  0.6816
 5513SOL    HW221241   1.208   4.285   1.824 -0.7926  0.4291 -1.5302
 5513SOL     MW21242   1.133   4.245   1.844 -0.3190  0.1988 -0.1589
 5514SOL     OW21243   4.125   4.836   2.992 -0.6032  0.1102 -0.3940
 5514SOL    HW121244   4.117   4.760   2.935 -0.7143  0.0455 -0.2957
 5514SOL    HW221245   4.144   4.909   2.934 -1.0608  0.1055 -0.5503
 5514SOL     MW21246   4.126   4.836   2.977 -0.6762  0.1011 -0.4013
 5515SOL     OW21247   4.733   1.320   0.976  0.2125 -0.3735  0.1825
 5515SOL    HW121248   4.638   1.315   0.973  0.0832  1.9561 -0.5297
 5515SOL    HW221249   4.752   1.387   1.042  1.4764 -2.9380  2.5273
 5515SOL     MW21250   4.723   1.328   0.984  0.3581 -0.4035  0.3915
 5516SOL     OW21251   1.302   1.290   1.804  0.6273  0.6547  0.4590
 5516SOL    HW121252   1.333   1.333   1.725  2.9952 -0.5071  0.7010
 5516SOL    HW221253   1.220   1.334   1.826  0.7866  2.0656 -1.7129
 5516SOL     MW21254   1.296   1.301   1.797  0.9507  0.6865  0.2120
 5517SOL     OW21255   2.524   5.812   3.635  0.4808  0.0415  0.3170
 5517SOL    HW121256   2.510   5.718   3.623  1.5149 -0.2567  1.3448
 5517SOL    HW221257   2.496   5.829   3.725  1.8278  0.4038  0.6766
 5517SOL     MW21258   2.519   5.802   3.645  0.7858  0.0496  0.4945
 5518SOL     OW21259   5.318   4.527   2.886 -0.2939  0.2539  0.0475
 5518SOL    HW121260   5.271   4.607   2.910 -1.8252 -0.6479  0.0964
 5518SOL    HW221261   5.279   4.500   2.803  2.8768  1.6693 -2.0166
 5518SOL     MW21262   5.307   4.534   2.879 -0.0844  0.3195 -0.2105
 5519SOL     OW21263   4.640   2.351   3.689  0.3295  0.1878  0.3172
 5519SOL    HW121264   4.654   2.357   3.783  2.0760  1.2074  0.0238
 5519SOL    HW221265   4.645   2.442   3.658  2.2999 -0.3357 -1.0595
 5519SOL     MW21266   4.643   2.364   3.697  0.8054  0.2515  0.1035
 5520SOL     OW21267   5.397   2.432   3.879 -0.6473  0.9444  0.2824
 5520SOL    HW121268   5.317   2.383   3.866 -0.7470  1.6015 -1.8624
 5520SOL    HW221269   5.404   2.488   3.801  2.8112 -0.4050 -0.4695
 5520SOL     MW21270   5.388   2.433   3.867 -0.2170  0.8557 -0.0882
 5521SOL     OW21271   0.673   2.045   1.181 -0.0008  0.3390 -0.7815
 5521SOL    HW121272   0.661   2.138   1.162  2.1982  1.0239  1.0277
 5521SOL    HW221273   0.731   2.014   1.112  1.3334  0.9132  0.0731
 5521SOL     MW21274   0.679   2.053   1.170  0.4515  0.5004 -0.4406
 5522SOL     OW21275   1.027   5.322   3.012 -0.4759  0.4574 -0.4197
 5522SOL    HW121276   0.995   5.264   2.942  0.9909  1.4896 -1.9908
 5522SOL    HW221277   0.968   5.397   3.009 -0.6821  0.3024 -0.2488
 5522SOL     MW21278   1.015   5.324   3.002 -0.3146  0.5693 -0.5989
 5523SOL     OW21279   2.664   4.538   4.921 -0.0063  0.0565 -0.0758
 5523SOL    HW121280   2.592   4.544   4.859 -1.0581 -0.3816  1.0922
 5523SOL    HW221281   2.686   4.629   4.942  1.5870  0.2855 -2.4524
 5523SOL     MW21282   2.658   4.550   4.916  0.0632  0.0305 -0.2308
 5524SOL     OW21283   4.076   5.317   0.688 -0.1428  0.2105 -0.3222
 5524SOL    HW121284   4.066   5.222   0.695  1.1292 -0.0527 -1.8272
 5524SOL    HW221285   3.988   5.350   0.672 -0.5173 -0.7564 -0.2892
 5524SOL     MW21286   4.063   5.309   0.687 -0.0281  0.0525 -0.5105
 5525SOL     OW21287   2.955   5.439   2.206  0.0732 -0.3801  0.4940
 5525SOL    HW121288   3.023   5.475   2.149  1.4248 -2.7046  0.5529
 5525SOL    HW221289   2.953   5.346   2.184 -0.8804 -0.9217  2.7487
 5525SOL     MW21290   2.964   5.432   2.196  0.1242 -0.7472  0.7901
 5526SOL     OW21291   0.103   5.438   5.817  0.1642 -0.5992  0.3676
 5526SOL    HW121292   0.025   5.388   5.841  0.0680  0.7376  2.9445
 5526SOL    HW221293   0.102   5.439   5.721 -2.5900 -1.2088  0.3489
 5526SOL     MW21294   0.093   5.432   5.807 -0.2007 -0.5064  0.6952
 5527SOL     OW21295   4.820   5.854   4.992  0.0025 -0.4301 -0.1213
 5527SOL    HW121296   4.912   5.829   5.000 -0.1419 -0.8517  0.2152
 5527SOL    HW221297   4.820   5.949   5.000  0.5302 -0.3260 -1.1786
 5527SOL     MW21298   4.832   5.863   4.994  0.0525 -0.4706 -0.2136
 5528SOL     OW21299   4.787   5.111   4.291 -0.1818 -0.2796 -0.6716
 5528SOL    HW121300   4.843   5.184   4.267  0.9735 -0.7781  0.4549
 5528SOL    HW221301   4.766   5.068   4.207 -1.5064  1.7492 -1.4284
 5528SOL     MW21302   4.791   5.115   4.277 -0.2031 -0.0844 -0.6247
 5529SOL     OW21303   3.194   4.810   5.568 -0.0481 -0.4701 -0.1730
 5529SOL    HW121304   3.142   4.822   5.489  1.1249 -1.4788 -1.1273
 5529SOL    HW221305   3.152   4.737   5.613  2.0226 -3.0680 -2.2779
 5529SOL     MW21306   3.182   4.802   5.564  0.3672 -0.9317 -0.5646
 5530SOL     OW21307   3.403   0.482   3.236  0.1706  0.6980 -0.0998
 5530SOL    HW121308   3.450   0.563   3.213  2.2782 -0.5088 -0.1468
 5530SOL    HW221309   3.341   0.469   3.164  0.3005  1.9026 -0.4405
 5530SOL     MW21310   3.401   0.491   3.224  0.4573  0.6977 -0.1497
 5531SOL     OW21311   4.700   4.616   1.586  0.2442  0.2595 -0.0401
 5531SOL    HW121312   4.680   4.530   1.625  1.6314 -0.3957 -0.7521
 5531SOL    HW221313   4.634   4.674   1.623 -1.0963 -1.2404 -0.0002
 5531SOL     MW21314   4.689   4.612   1.596  0.2503 -0.0167 -0.1261
 5532SOL     OW21315   4.727   4.999   0.337 -0.5612  0.3951  0.1951
 5532SOL    HW121316   4.672   5.061   0.289  0.8546  1.6854  0.1984
 5532SOL    HW221317   4.766   5.052   0.407 -0.1368 -0.7458  0.8349
 5532SOL     MW21318   4.725   5.014   0.340 -0.3252  0.4144  0.2774
 5533SOL     OW21319   5.986   1.284   2.643  0.0265  0.1246 -0.3204
 5533SOL    HW121320   5.965   1.352   2.708  1.6714 -2.2505  2.8002
 5533SOL    HW221321   6.062   1.319   2.597 -0.4752  1.3556 -0.2625
 5533SOL     MW21322   5.993   1.297   2.646  0.1731 -0.0218  0.0865
 5534SOL     OW21323   1.442   0.339   1.818  0.3173 -0.4649 -0.2073
 5534SOL    HW121324   1.537   0.337   1.831  0.3333 -2.4254 -0.5258
 5534SOL    HW221325   1.406   0.293   1.895 -0.3642  0.0301 -0.2226
 5534SOL     MW21326   1.450   0.333   1.830  0.2321 -0.6525 -0.2500
 5535SOL     OW21327   0.132   4.089   2.686 -0.3798 -0.4153  0.1783
 5535SOL    HW121328   0.047   4.081   2.729  0.2089 -2.0872  1.0818
 5535SOL    HW221329   0.157   3.999   2.665  1.2603  0.0398  0.1135
 5535SOL     MW21330   0.124   4.076   2.689 -0.0945 -0.5713  0.2856
 5536SOL     OW21331   5.845   1.735   4.177 -0.4400  0.1213  0.2237
 5536SOL    HW121332   5.750   1.738   4.190 -0.5113 -0.0675 -0.2499
 5536SOL    HW221333   5.878   1.814   4.219 -0.6910 -0.3863  1.4056
 5536SOL     MW21334   5.837   1.745   4.184 -0.4811  0.0321  0.3138
 5537SOL     OW21335   0.053   5.065   4.998 -0.2296 -0.5323 -0.1848
 5537SOL    HW121336  -0.021   5.116   4.967  1.1640  0.8670 -1.2772
 5537SOL    HW221337   0.068   5.096   5.088 -0.1292  0.1457 -0.4343
 5537SOL     MW21338   0.046   5.075   5.006 -0.0383 -0.2666 -0.3572
 5538SOL     OW21339   3.659   3.630   3.082 -0.4837  0.1479 -0.3068
 5538SOL    HW121340   3.686   3.621   3.173  2.4420  1.2652 -1.0052
 5538SOL    HW221341   3.639   3.723   3.072  0.6430  0.3237 -1.1251
 5538SOL     MW21342   3.660   3.641   3.092  0.0350  0.3133 -0.5009
 5539SOL     OW21343   3.034   2.451   3.592 -0.4890  0.1210  0.4832
 5539SOL    HW121344   3.096   2.418   3.657  0.3192 -2.6344 -1.5720
 5539SOL    HW221345   2.958   2.393   3.601 -1.4883  1.4613  0.8088
 5539SOL     MW21346   3.032   2.439   3.602 -0.5136 -0.0601  0.2618
 5540SOL     OW21347   3.733   5.673   0.558 -0.1903 -0.1338  0.1563
 5540SOL    HW121348   3.793   5.657   0.631 -0.7097  0.4450  0.7123
 5540SOL    HW221349   3.711   5.766   0.565 -0.0398 -0.0166 -0.8967
 5540SOL     MW21350   3.738   5.683   0.569 -0.2375 -0.0448  0.0926
 5541SOL     OW21351   1.564   5.330   4.496  0.3681 -0.7362  0.6016
 5541SOL    HW121352   1.536   5.335   4.405 -1.2165  2.1276  1.1804
 5541SOL    HW221353   1.563   5.236   4.516 -3.3073 -1.1788 -1.1658
 5541SOL     MW21354   1.560   5.319   4.487 -0.3053 -0.4268  0.4497
 5542SOL     OW21355   2.813   3.262   0.415 -0.3596  0.2756  0.2621
 5542SOL    HW121356   2.818   3.180   0.464  0.0034 -0.2136 -0.5690
 5542SOL    HW221357   2.905   3.289   0.404 -0.3805 -0.0263 -0.7853
 5542SOL     MW21358   2.826   3.255   0.420 -0.3159  0.1743  0.0216
 5543SOL     OW21359   2.335   5.683   3.299 -0.2898 -0.2286  0.0015
 5543SOL    HW121360   2.421   5.708   3.333 -0.7143  1.6931 -0.2928
 5543SOL    HW221361   2.343   5.694   3.204 -1.2148  1.1223  0.0724
 5543SOL     MW21362   2.347   5.687   3.291 -0.4625  0.1903 -0.0269
 5544SOL     OW21363   0.331   0.126   4.204  0.8983 -0.5622  0.0720
 5544SOL    HW121364   0.320   0.109   4.110  0.3028  1.9043 -0.3513
 5544SOL    HW221365   0.396   0.196   4.208  0.3053 -0.0808  1.4718
 5544SOL     MW21366   0.338   0.133   4.192  0.7461 -0.1848  0.1969
 5545SOL     OW21367   2.003   3.796   1.330  0.8444  0.1412 -0.0652
 5545SOL    HW121368   1.964   3.795   1.418 -0.0506  2.4299 -0.3957
 5545SOL    HW221369   2.096   3.814   1.345  0.6267  0.9006  0.3850
 5545SOL     MW21370   2.010   3.798   1.343  0.7021  0.5314 -0.0497
 5546SOL     OW21371   1.451   3.621   0.786  0.2755  0.5457  0.2092
 5546SOL    HW121372   1.511   3.548   0.803 -0.3764 -0.0998 -0.2532
 5546SOL    HW221373   1.413   3.602   0.701 -0.1296  1.2738  0.2238
 5546SOL     MW21374   1.454   3.609   0.777  0.1402  0.5562  0.1519
 5547SOL     OW21375   5.103   4.638   2.189  0.1602  0.3602  0.4491
 5547SOL    HW121376   5.024   4.662   2.139  0.5936  0.8310 -0.0152
 5547SOL    HW221377   5.142   4.721   2.214  0.1142  0.1187  1.3129
 5547SOL     MW21378   5.098   4.651   2.186  0.2098  0.3896  0.5004
 5548SOL     OW21379   5.958   1.448   2.227  0.1186  0.4418  0.2975
 5548SOL    HW121380   6.029   1.383   2.233 -2.7077 -2.8472 -0.3052
 5548SOL    HW221381   5.908   1.435   2.308 -1.9571  0.0148 -1.0220
 5548SOL     MW21382   5.961   1.438   2.238 -0.5093 -0.0340  0.0513
 5549SOL     OW21383   5.671   1.601   0.879 -0.4692 -0.1541 -0.3171
 5549SOL    HW121384   5.735   1.572   0.815  1.7713  3.5030  0.1299
 5549SOL    HW221385   5.694   1.553   0.959 -1.1171 -2.1605 -1.3165
 5549SOL     MW21386   5.682   1.591   0.881 -0.2651  0.0571 -0.3877
 5550SOL     OW21387   1.262   0.072   5.473 -0.4750  0.1027  0.2077
 5550SOL    HW121388   1.209   0.120   5.409 -0.4332 -0.3735 -0.1972
 5550SOL    HW221389   1.266  -0.017   5.437  1.3916  0.3527 -0.2520
 5550SOL     MW21390   1.256   0.066   5.460 -0.2307  0.0737  0.0968
 5551SOL     OW21391   4.898   1.370   4.316  0.6060  0.2478  0.6187
 5551SOL    HW121392   4.969   1.398   4.258  0.7985  0.2456  0.8502
 5551SOL    HW221393   4.823   1.357   4.259  0.8084  0.2000  0.3649
 5551SOL     MW21394   4.898   1.372   4.301  0.6566  0.2413  0.6156
 5552SOL     OW21395   5.572   1.518   3.937  0.6957 -0.0405  0.6115
 5552SOL    HW121396   5.542   1.438   3.979  4.1673 -1.7679 -0.0789
 5552SOL    HW221397   5.561   1.501   3.843 -0.1703  1.0060  0.5052
 5552SOL     MW21398   5.567   1.506   3.930  1.0295 -0.1278  0.5095
 5553SOL     OW21399   3.677   5.490   4.496 -0.5519 -0.0848  0.3851
 5553SOL    HW121400   3.696   5.489   4.402 -0.6981 -0.2809  0.3579
 5553SOL    HW221401   3.680   5.398   4.521 -2.1952 -0.1845  0.2402
 5553SOL     MW21402   3.680   5.478   4.487 -0.7808 -0.1230  0.3633
 5554SOL     OW21403   4.596   5.612   2.154 -0.1769  0.1582  0.2473
 5554SOL    HW121404   4.607   5.554   2.079 -0.3194  0.2611  0.1463
 5554SOL    HW221405   4.601   5.700   2.118 -1.6401  0.2151  0.1381
 5554SOL     MW21406   4.598   5.616   2.140 -0.3829  0.1783  0.2203
 5555SOL     OW21407   3.897   4.836   4.916  0.4555  0.1531 -0.4619
 5555SOL    HW121408   3.855   4.776   4.853  3.4617 -0.0978 -2.3235
 5555SOL    HW221409   3.935   4.778   4.982 -1.5624  0.3568  0.9289
 5555SOL     MW21410   3.896   4.821   4.916  0.5817  0.1473 -0.5217
 5556SOL     OW21411   0.282   4.662   5.211  0.1954  0.1184  0.2439
 5556SOL    HW121412   0.267   4.738   5.267  1.5353 -0.2891  1.1697
 5556SOL    HW221413   0.275   4.587   5.271  2.1734 -0.2873 -0.0199
 5556SOL     MW21414   0.279   4.662   5.226  0.6201  0.0143  0.3290
 5557SOL     OW21415   3.524   4.991   5.254  0.1962  0.1648 -0.2356
 5557SOL    HW121416   3.576   4.959   5.180 -0.5276  0.0768 -0.7091
 5557SOL    HW221417   3.434   4.965   5.234 -0.2468  1.5174 -0.1088
 5557SOL     MW21418   3.519   4.984   5.242  0.0467  0.3271 -0.2804
 5558SOL     OW21419   0.188   0.305   3.155  0.3106  0.4568  0.2077
 5558SOL    HW121420   0.195   0.336   3.245 -0.2275  1.2699 -0.0273
 5558SOL    HW221421   0.199   0.210   3.162  1.6572  0.6558  0.9587
 5558SOL     MW21422   0.190   0.297   3.167  0.4141  0.5863  0.2737
 5559SOL     OW21423   3.764   0.397   4.965  0.3215 -0.0190 -0.2151
 5559SOL    HW121424   3.757   0.424   4.873 -0.2823  1.4926  0.2575
 5559SOL    HW221425   3.679   0.419   5.003  0.2453 -1.4818  0.5077
 5559SOL     MW21426   3.752   0.403   4.958  0.2346 -0.0128 -0.0625
 5560SOL     OW21427   2.529   1.229   1.887  0.4334  0.4079 -0.0483
 5560SOL    HW121428   2.501   1.296   1.950 -0.3179  1.8001 -1.8317
 5560SOL    HW221429   2.482   1.150   1.915  0.2422  0.9633  1.2467
 5560SOL     MW21430   2.519   1.227   1.899  0.3130  0.6572 -0.1109
 5561SOL     OW21431   1.906   4.946   0.193  0.5761 -0.3825  0.0731
 5561SOL    HW121432   1.911   5.041   0.203  0.2229 -0.5208  1.7676
 5561SOL    HW221433   1.812   4.926   0.200  0.5382 -0.7587 -1.3436
 5561SOL     MW21434   1.895   4.955   0.195  0.5261 -0.4482  0.1086
 5562SOL     OW21435   3.342   2.213   1.798  0.2773 -0.2514 -0.0703
 5562SOL    HW121436   3.316   2.163   1.875 -1.8006  1.1932  0.2273
 5562SOL    HW221437   3.404   2.278   1.831  0.2956 -0.3878  0.1633
 5562SOL     MW21438   3.346   2.215   1.812  0.0134 -0.0842 -0.0024
 5563SOL     OW21439   5.855   1.481   3.994 -0.1019 -0.2600  0.2138
 5563SOL    HW121440   5.771   1.519   3.970 -0.5048 -0.7317  0.8488
 5563SOL    HW221441   5.848   1.389   3.970  0.3243 -0.2490  0.0437
 5563SOL     MW21442   5.844   1.474   3.988 -0.0992 -0.3190  0.2735
 5564SOL     OW21443   3.295   5.585   4.971  0.5473  0.3734 -0.0466
 5564SOL    HW121444   3.200   5.575   4.960  0.4425 -0.0663  1.2249
 5564SOL    HW221445   3.309   5.577   5.065  2.3245 -3.7599 -0.5501
 5564SOL     MW21446   3.285   5.583   4.981  0.7615 -0.2122  0.0515
 5565SOL     OW21447   2.461   2.220   4.782  0.1585  0.1826  0.0064
 5565SOL    HW121448   2.530   2.285   4.773 -0.6681  1.2960  1.4178
 5565SOL    HW221449   2.380   2.270   4.770 -0.4660 -0.7452  0.3252
 5565SOL     MW21450   2.459   2.235   4.779 -0.0272  0.2062  0.2284
 5566SOL     OW21451   2.015   2.574   4.055 -0.0371  0.1202  0.2525
 5566SOL    HW121452   2.081   2.527   4.004  0.8786  1.2719  0.3652
 5566SOL    HW221453   1.960   2.616   3.990  0.7270  1.0401  0.2002
 5566SOL     MW21454   2.016   2.573   4.040  0.1779  0.3855  0.2604
 5567SOL     OW21455   2.050   0.365   1.901 -0.1476  0.8834  0.2880
 5567SOL    HW121456   2.049   0.456   1.930  2.1541  1.8335 -2.3255
 5567SOL    HW221457   2.122   0.325   1.950 -1.7544  0.1921  2.1220
 5567SOL     MW21458   2.059   0.372   1.911 -0.0587  0.9165  0.1882
 5568SOL     OW21459   3.602   1.632   0.533  0.4552  0.8274  0.0294
 5568SOL    HW121460   3.613   1.726   0.542 -0.1940  0.8086  1.2461
 5568SOL    HW221461   3.512   1.621   0.502  0.2450  0.5780  0.7220
 5568SOL     MW21462   3.592   1.642   0.530  0.3452  0.7930  0.2738
 5569SOL     OW21463   2.972   4.120   5.373  0.2784 -0.3512 -0.0306
 5569SOL    HW121464   2.994   4.032   5.343  2.7557  0.5346 -0.8595
 5569SOL    HW221465   2.981   4.115   5.469 -0.1961 -1.1257 -0.0161
 5569SOL     MW21466   2.976   4.108   5.382  0.5348 -0.3371 -0.1345
 5570SOL     OW21467   2.271   1.426   1.109  0.4595  0.1272 -0.2410
 5570SOL    HW121468   2.344   1.378   1.147 -0.9594 -1.9755 -0.0510
 5570SOL    HW221469   2.247   1.376   1.031 -0.9451  0.6210 -0.1439
 5570SOL     MW21470   2.277   1.413   1.104  0.0980 -0.0788 -0.2042
 5571SOL     OW21471   1.853   4.000   4.601 -0.5448  0.5531 -0.2420
 5571SOL    HW121472   1.844   4.079   4.653 -2.3304 -0.2399  0.6909
 5571SOL    HW221473   1.763   3.973   4.582  0.0565 -0.5743 -1.5932
 5571SOL     MW21474   1.840   4.006   4.605 -0.6964  0.3071 -0.2952
 5572SOL     OW21475   0.140   1.939   3.114  0.2708  0.0395 -0.2712
 5572SOL    HW121476   0.115   1.956   3.204  0.5513  0.2241 -0.2290
 5572SOL    HW221477   0.115   1.848   3.098 -1.6958  0.6267 -0.6511
 5572SOL     MW21478   0.134   1.930   3.123  0.0550  0.1384 -0.3145
 5573SOL     OW21479   5.719   5.966   5.749  0.0215  0.3924  0.7803
 5573SOL    HW121480   5.712   5.949   5.843 -0.2568  1.5605  0.9759
 5573SOL    HW221481   5.805   6.006   5.738 -0.1231  0.6558  0.5998
 5573SOL     MW21482   5.729   5.969   5.760 -0.0329  0.5751  0.7825
 5574SOL     OW21483   4.405   1.490   1.656  0.4252 -0.0376  0.4930
 5574SOL    HW121484   4.417   1.406   1.701 -1.4518 -0.2085  0.7224
 5574SOL    HW221485   4.453   1.552   1.711 -1.8522 -0.2454  2.8165
 5574SOL     MW21486   4.413   1.487   1.669 -0.1063 -0.0861  0.8198
 5575SOL     OW21487   5.777   0.174   0.683 -0.3724  0.0125 -0.0894
 5575SOL    HW121488   5.700   0.161   0.740 -0.7320  1.0083 -0.3348
 5575SOL    HW221489   5.814   0.257   0.712 -0.1198  0.1551 -0.8097
 5575SOL     MW21490   5.772   0.183   0.694 -0.3858  0.1582 -0.2131
 5576SOL     OW21491   0.668   3.494   3.678 -0.5067  0.5964  0.0300
 5576SOL    HW121492   0.728   3.448   3.736  0.2676  1.2118 -0.2689
 5576SOL    HW221493   0.689   3.460   3.591 -1.2956  0.0649  0.0442
 5576SOL     MW21494   0.679   3.484   3.674 -0.5085  0.6070 -0.0062
 5577SOL     OW21495   3.140   3.548   4.307  0.1642 -0.1923 -0.2376
 5577SOL    HW121496   3.072   3.546   4.374  1.0995 -1.5735  0.6789
 5577SOL    HW221497   3.102   3.503   4.232 -0.9834  1.5963 -0.7590
 5577SOL     MW21498   3.127   3.542   4.306  0.1371 -0.1400 -0.1874
 5578SOL     OW21499   1.161   4.792   1.741  0.7091 -0.6986  0.3732
 5578SOL    HW121500   1.193   4.851   1.674 -0.1709 -1.3037 -0.5871
 5578SOL    HW221501   1.225   4.721   1.743  1.8412  0.3175  1.6229
 5578SOL     MW21502   1.174   4.790   1.733  0.7414 -0.6466  0.4103
 5579SOL     OW21503   0.454   4.422   0.147  0.0733 -0.3489 -0.1728
 5579SOL    HW121504   0.368   4.440   0.109  0.9550 -0.0022 -2.0549
 5579SOL    HW221505   0.463   4.326   0.143 -0.5452 -0.4594  0.7955
 5579SOL     MW21506   0.444   4.412   0.142  0.1070 -0.3181 -0.2898
 5580SOL     OW21507   4.734   2.160   1.000  0.1439 -0.7443  0.6912
 5580SOL    HW121508   4.641   2.172   0.984  0.3095  0.4539  0.5385
 5580SOL    HW221509   4.775   2.168   0.914  0.5206  0.2297  0.9534
 5580SOL     MW21510   4.728   2.163   0.987  0.2131 -0.4663  0.7052
 5581SOL     OW21511   1.088   1.293   2.605 -0.3212  0.1249 -0.5397
 5581SOL    HW121512   1.177   1.259   2.596 -0.1275  0.3468  0.4003
 5581SOL    HW221513   1.034   1.234   2.553  0.5520  0.7918 -2.2462
 5581SOL     MW21514   1.093   1.281   2.597 -0.1848  0.2388 -0.6378
 5582SOL     OW21515   3.718   3.407   4.820 -0.6616  0.2504 -0.4498
 5582SOL    HW121516   3.682   3.491   4.848  0.7459  1.2766 -1.6825
 5582SOL    HW221517   3.812   3.423   4.811 -0.1803 -1.8065  0.5839
 5582SOL     MW21518   3.726   3.420   4.823 -0.4196  0.1185 -0.4754
 5583SOL     OW21519   0.847   0.595   2.769  0.0796  0.4153 -0.1616
 5583SOL    HW121520   0.876   0.504   2.766 -0.9838  0.0429  0.7330
 5583SOL    HW221521   0.903   0.636   2.835 -0.2990  0.1002  0.3560
 5583SOL     MW21522   0.858   0.589   2.777 -0.1050  0.3273  0.0193
 5584SOL     OW21523   2.421   5.446   1.203  0.2059 -0.2840  0.0423
 5584SOL    HW121524   2.359   5.388   1.247 -0.6547  0.9661  0.5141
 5584SOL    HW221525   2.373   5.481   1.129 -0.7500  3.0711  2.1414
 5584SOL     MW21526   2.407   5.443   1.199 -0.0267  0.3057  0.3715
 5585SOL     OW21527   2.350   4.359   3.597  0.1232 -0.3687  0.4433
 5585SOL    HW121528   2.419   4.413   3.635  1.0274 -0.0736 -1.5753
 5585SOL    HW221529   2.350   4.280   3.651  0.2652  0.6930  2.0610
 5585SOL     MW21530   2.359   4.356   3.609  0.2570 -0.1955  0.3917
 5586SOL     OW21531   3.085   5.648   1.552  0.2341 -0.0959 -0.2343
 5586SOL    HW121532   3.165   5.662   1.602  0.4355 -1.2027 -0.2267
 5586SOL    HW221533   3.015   5.658   1.617  0.4309 -0.3726  0.0240
 5586SOL     MW21534   3.086   5.651   1.567  0.2849 -0.2732 -0.2002
 5587SOL     OW21535   5.705   0.631   0.941  0.3684  0.2773  0.3008
 5587SOL    HW121536   5.755   0.588   1.011  1.5491  0.2738 -0.5275
 5587SOL    HW221537   5.622   0.584   0.938  1.2666 -1.3375  0.0688
 5587SOL     MW21538   5.701   0.620   0.950  0.6347  0.0702  0.1652
 5588SOL     OW21539   0.395   4.048   3.626  0.4115  0.3059  0.4046
 5588SOL    HW121540   0.320   3.996   3.599 -0.5229  1.9122 -0.1733
 5588SOL    HW221541   0.455   4.045   3.552  1.4178 -1.8188  1.2498
 5588SOL     MW21542   0.393   4.041   3.613  0.4207  0.2394  0.4389
 5589SOL     OW21543   5.847   3.003   2.971  0.2508  0.5268 -0.1569
 5589SOL    HW121544   5.800   2.956   2.902  0.5663  0.8364 -0.5815
 5589SOL    HW221545   5.937   2.971   2.965  0.1388  0.0685  0.5391
 5589SOL     MW21546   5.852   2.993   2.962  0.2770  0.5078 -0.1223
 5590SOL     OW21547   4.562   0.946   4.768 -0.0322 -0.3380 -0.2164
 5590SOL    HW121548   4.649   0.918   4.796 -1.1942 -0.0864  3.9615
 5590SOL    HW221549   4.537   0.881   4.701  3.1442 -0.6321 -1.2012
 5590SOL     MW21550   4.570   0.934   4.763  0.2255 -0.3435  0.1926
 5591SOL     OW21551   5.367   1.575   4.326  0.6755 -0.1488 -0.1178
 5591SOL    HW121552   5.430   1.647   4.323  1.2550 -0.6615 -0.6150
 5591SOL    HW221553   5.420   1.497   4.309  0.1929 -0.7918  1.2830
 5591SOL     MW21554   5.382   1.575   4.323  0.6876 -0.2967 -0.0024
 5592SOL     OW21555   3.546   4.180   2.277 -0.2490  0.6064  0.3007
 5592SOL    HW121556   3.475   4.201   2.338 -0.2039  0.3956  0.4251
 5592SOL    HW221557   3.615   4.243   2.299  0.9617 -1.3984  2.5328
 5592SOL     MW21558   3.546   4.191   2.288 -0.0885  0.3223  0.6022
 5593SOL     OW21559   5.530   4.973   1.570 -0.6888 -0.0465 -0.5798
 5593SOL    HW121560   5.510   4.879   1.568 -2.0913  0.2314 -0.1224
 5593SOL    HW221561   5.626   4.977   1.569 -0.5678 -1.5319  1.4070
 5593SOL     MW21562   5.540   4.961   1.569 -0.8526 -0.2007 -0.2669
 5594SOL     OW21563   3.122   0.464   0.262 -0.2318 -0.5959  0.2419
 5594SOL    HW121564   3.045   0.500   0.306  0.1163 -0.2454  0.5612
 5594SOL    HW221565   3.087   0.425   0.182 -0.8030 -0.8490  0.6137
 5594SOL     MW21566   3.107   0.464   0.257 -0.2604 -0.5834  0.3304
 5595SOL     OW21567   4.193   4.469   3.487 -0.0791  0.3816 -0.0852
 5595SOL    HW121568   4.132   4.409   3.531  0.5330  0.5604  1.0322
 5595SOL    HW221569   4.168   4.465   3.395 -1.3342 -0.0800  0.2571
 5595SOL     MW21570   4.182   4.461   3.481 -0.1616  0.3452  0.1018
 5596SOL     OW21571   0.844   3.681   5.042 -1.3071  0.1970 -0.5943
 5596SOL    HW121572   0.812   3.658   5.129  0.0119  0.7030  0.0313
 5596SOL    HW221573   0.817   3.607   4.987  0.2429 -1.4674  0.7975
 5596SOL     MW21574   0.837   3.669   5.046 -0.9398  0.0486 -0.3357
 5597SOL     OW21575   4.499   3.121   3.992  0.2684  0.0652  0.3300
 5597SOL    HW121576   4.423   3.094   3.941  0.7972 -1.6436  0.4170
 5597SOL    HW221577   4.466   3.133   4.081  0.1147 -0.8729  0.4096
 5597SOL     MW21578   4.485   3.119   3.997  0.3166 -0.2737  0.3514
 5598SOL     OW21579   1.358   0.644   2.465 -0.3793 -0.1798 -0.6475
 5598SOL    HW121580   1.277   0.599   2.487 -0.4036 -0.2019 -0.7806
 5598SOL    HW221581   1.399   0.664   2.550 -1.1357  0.9401 -0.5258
 5598SOL     MW21582   1.353   0.641   2.479 -0.4792 -0.0393 -0.6492
 5599SOL     OW21583   1.798   3.449   3.673  0.8299  0.3434 -0.4922
 5599SOL    HW121584   1.762   3.398   3.600  0.7503 -1.3309  0.6847
 5599SOL    HW221585   1.808   3.386   3.744  3.8264  1.2607 -0.0054
 5599SOL     MW21586   1.795   3.434   3.673  1.2034  0.2463 -0.2792
 5600SOL     OW21587   5.308   3.944   1.384  0.1113 -0.7074  0.4878
 5600SOL    HW121588   5.337   4.019   1.436 -1.1970 -1.8347  2.9303
 5600SOL    HW221589   5.388   3.913   1.342  0.7385  1.8173 -0.2898
 5600SOL     MW21590   5.322   3.950   1.386  0.0243 -0.5283  0.7010
 5601SOL     OW21591   3.266   5.955   2.682  0.1788  0.1694 -0.4612
 5601SOL    HW121592   3.249   5.950   2.588 -0.8334  2.2607 -0.4126
 5601SOL    HW221593   3.235   5.871   2.716 -2.4276  0.6215 -1.5715
 5601SOL     MW21594   3.260   5.943   2.675 -0.2842  0.4945 -0.5972
 5602SOL     OW21595   4.273   0.769   1.830  0.5749  0.0170  0.2438
 5602SOL    HW121596   4.277   0.714   1.908  1.1360  1.4391  1.2379
 5602SOL    HW221597   4.179   0.779   1.812  0.4592 -0.7005  0.4560
 5602SOL     MW21598   4.262   0.763   1.837  0.6313  0.1071  0.3983
 5603SOL     OW21599   1.435   3.993   1.798  0.2595  0.5430 -0.9214
 5603SOL    HW121600   1.497   3.943   1.745 -0.6692  0.9795 -2.4711
 5603SOL    HW221601   1.481   4.009   1.880  2.2133  0.8981 -2.0482
 5603SOL     MW21602   1.449   3.989   1.801  0.3906  0.6444 -1.2640
 5604SOL     OW21603   2.594   0.628   1.042 -0.4825 -0.0743 -0.1656
 5604SOL    HW121604   2.672   0.679   1.061  0.2899 -1.3808  0.2350
 5604SOL    HW221605   2.522   0.690   1.053  0.3815  0.7693  0.9302
 5604SOL     MW21606   2.595   0.642   1.046 -0.2730 -0.1336  0.0259
 5605SOL     OW21607   3.244   3.131   0.888  0.9215 -0.4505 -0.0182
 5605SOL    HW121608   3.234   3.051   0.940  0.9583  2.0050  4.0146
 5605SOL    HW221609   3.159   3.145   0.848 -0.1068 -0.7299  2.0138
 5605SOL     MW21610   3.232   3.122   0.890  0.7946 -0.1721  0.7582
 5606SOL     OW21611   2.715   2.864   1.025  0.1603  0.2887 -0.3571
 5606SOL    HW121612   2.680   2.840   0.939 -0.7467  2.0821 -0.5148
 5606SOL    HW221613   2.683   2.953   1.040  1.1531  0.3769  1.3966
 5606SOL     MW21614   2.707   2.872   1.016  0.1712  0.5293 -0.1528
 5607SOL     OW21615   4.650   3.315   2.749 -0.6655  0.6031 -0.1651
 5607SOL    HW121616   4.615   3.280   2.830 -0.2097 -0.2227 -0.3125
 5607SOL    HW221617   4.742   3.288   2.749 -0.3962  1.4995 -0.4548
 5607SOL     MW21618   4.657   3.307   2.759 -0.5717  0.6125 -0.2213
 5608SOL     OW21619   5.675   4.716   1.312 -0.0732 -0.6075  0.0211
 5608SOL    HW121620   5.688   4.630   1.352  0.8531  0.1370  1.3446
 5608SOL    HW221621   5.745   4.724   1.248  0.2231 -0.5725  0.3501
 5608SOL     MW21622   5.686   4.706   1.309  0.0834 -0.5074  0.2326
 5609SOL     OW21623   0.761   3.416   3.413  0.5830 -0.6034  0.5683
 5609SOL    HW121624   0.827   3.354   3.444  0.3404 -0.8776  0.5421
 5609SOL    HW221625   0.805   3.466   3.345  0.2473 -1.9518 -0.6714
 5609SOL     MW21626   0.775   3.414   3.408  0.5090 -0.8111  0.4063
 5610SOL     OW21627   0.502   1.482   4.177 -0.0821  0.6343 -0.3603
 5610SOL    HW121628   0.597   1.482   4.165  0.1174 -0.2054  1.0035
 5610SOL    HW221629   0.482   1.568   4.214  0.3677  0.2771  0.7433
 5610SOL     MW21630   0.511   1.493   4.180  0.0011  0.4811 -0.0443
 5611SOL     OW21631   4.546   1.277   1.328 -0.3363 -0.0767  0.1350
 5611SOL    HW121632   4.551   1.305   1.419 -1.4358 -1.7617  0.7232
 5611SOL    HW221633   4.608   1.205   1.321  0.8674  1.0247 -0.8465
 5611SOL     MW21634   4.555   1.272   1.339 -0.3228 -0.1515  0.0845
 5612SOL     OW21635   0.977   4.636   1.359  1.2471 -0.0749  0.0466
 5612SOL    HW121636   0.953   4.645   1.452  0.5636  0.3550 -0.1702
 5612SOL    HW221637   0.995   4.543   1.349  0.6428 -0.2470  0.4580
 5612SOL     MW21638   0.976   4.625   1.370  1.0822 -0.0420  0.0714
 5613SOL     OW21639   3.597   2.172   5.528 -0.7504 -0.2156 -0.1311
 5613SOL    HW121640   3.535   2.147   5.460 -1.5125  1.0563  0.0843
 5613SOL    HW221641   3.588   2.104   5.595 -0.1730 -1.3389 -1.1746
 5613SOL     MW21642   3.588   2.160   5.528 -0.7739 -0.1965 -0.2370
 5614SOL     OW21643   5.103   5.336   1.012 -0.4484 -0.1398  0.2812
 5614SOL    HW121644   5.125   5.271   1.079  0.4685  0.5179  0.6256
 5614SOL    HW221645   5.007   5.335   1.009 -0.5337  0.3771  2.1666
 5614SOL     MW21646   5.093   5.327   1.020 -0.3419  0.0110  0.5667
 5615SOL     OW21647   2.927   5.468   2.923  0.0059 -0.1075  0.1379
 5615SOL    HW121648   2.863   5.439   2.858  1.8966 -0.4566 -1.5938
 5615SOL    HW221649   2.877   5.525   2.981 -1.5800  0.7789 -2.0301
 5615SOL     MW21650   2.912   5.472   2.922  0.0451 -0.0386 -0.3614
 5616SOL     OW21651   1.269   0.880   3.554  0.6356 -0.3755  0.0765
 5616SOL    HW121652   1.294   0.791   3.530  1.2839 -0.3868  0.7740
 5616SOL    HW221653   1.176   0.886   3.531  0.3730 -1.5009  0.7838
 5616SOL     MW21654   1.260   0.870   3.548  0.6850 -0.5210  0.2565
 5617SOL     OW21655   5.510   5.622   4.348  0.1127  0.0484  0.0180
 5617SOL    HW121656   5.547   5.690   4.404 -0.5454  0.0601  0.4482
 5617SOL    HW221657   5.482   5.669   4.269 -0.3743  0.2942  0.3286
 5617SOL     MW21658   5.511   5.637   4.345 -0.0339  0.0811  0.1125
 5618SOL     OW21659   0.312   0.380   2.298 -0.0731  0.6514 -0.3843
 5618SOL    HW121660   0.375   0.336   2.241  1.5960  1.4726  0.7835
 5618SOL    HW221661   0.271   0.446   2.242 -0.3354 -0.2745 -1.3035
 5618SOL     MW21662   0.315   0.383   2.283  0.1069  0.6380 -0.3524
 5619SOL     OW21663   3.767   2.144   0.672  0.5630  0.4877 -0.4622
 5619SOL    HW121664   3.739   2.137   0.764 -0.9289  1.9674 -0.7730
 5619SOL    HW221665   3.709   2.210   0.635  1.8913  0.7061 -2.2017
 5619SOL     MW21666   3.756   2.152   0.679  0.5419  0.7050 -0.7247
 5620SOL     OW21667   1.886   0.293   0.563 -0.0261 -0.0810  0.5637
 5620SOL    HW121668   1.792   0.271   0.561 -0.0379 -0.0402  0.6422
 5620SOL    HW221669   1.911   0.300   0.471 -0.1209 -0.0061  0.5424
 5620SOL     MW21670   1.877   0.291   0.551 -0.0397 -0.0662  0.5710
 5621SOL     OW21671   4.233   5.693   2.079  0.2419 -0.1442  0.0209
 5621SOL    HW121672   4.154   5.651   2.044 -0.4710 -0.2281  1.6560
 5621SOL    HW221673   4.269   5.628   2.140 -0.0811  1.0627  1.5072
 5621SOL     MW21674   4.227   5.679   2.082  0.1092 -0.0010  0.4203
 5622SOL     OW21675   2.124   1.901   4.938 -0.1591  0.0791 -0.7620
 5622SOL    HW121676   2.135   1.987   4.897 -3.1708  1.0849  0.3159
 5622SOL    HW221677   2.124   1.920   5.032 -0.7329 -1.1039 -0.5159
 5622SOL     MW21678   2.125   1.914   4.945 -0.6182  0.0564 -0.5927
 5623SOL     OW21679   2.559   3.086   0.810  0.2864  0.2546 -0.0105
 5623SOL    HW121680   2.580   3.179   0.823  1.2215 -0.2927  2.7259
 5623SOL    HW221681   2.503   3.064   0.885  1.1928 -1.7198  0.0935
 5623SOL     MW21682   2.555   3.095   0.822  0.5219 -0.0682  0.3532
 5624SOL     OW21683   3.611   2.811   2.578  0.1208 -0.1046  0.4613
 5624SOL    HW121684   3.640   2.763   2.656  0.5106 -1.4250 -0.4908
 5624SOL    HW221685   3.653   2.897   2.587 -0.6956  0.1349  2.2381
 5624SOL     MW21686   3.620   2.816   2.589  0.0660 -0.2432  0.5670
 5625SOL     OW21687   4.256   2.685   5.234  0.0632 -0.5127  0.1315
 5625SOL    HW121688   4.319   2.644   5.175 -0.3953 -0.3010 -0.5132
 5625SOL    HW221689   4.308   2.744   5.289  0.5866 -1.2132  0.3981
 5625SOL     MW21690   4.270   2.687   5.234  0.0720 -0.5751  0.0825
 5626SOL     OW21691   3.069   3.526   5.701  0.2119  0.0261  0.1086
 5626SOL    HW121692   3.116   3.589   5.647  0.8497  0.0684  0.7075
 5626SOL    HW221693   2.979   3.532   5.672  0.2145  1.4156  0.3472
 5626SOL     MW21694   3.064   3.534   5.691  0.2937  0.2093  0.2160
 5627SOL     OW21695   2.898   0.505   5.403 -0.1210 -0.5296 -0.6971
 5627SOL    HW121696   2.817   0.546   5.374  0.1066 -0.9417 -1.9464
 5627SOL    HW221697   2.952   0.500   5.324  2.6942  3.2951  0.8434
 5627SOL     MW21698   2.894   0.509   5.389  0.2685 -0.0927 -0.6595
 5628SOL     OW21699   0.286   4.197   1.980  0.0431 -0.8607  0.2088
 5628SOL    HW121700   0.364   4.220   1.930  0.9193 -3.4673  0.3115
 5628SOL    HW221701   0.214   4.205   1.918  0.3115  1.9269  0.2061
 5628SOL     MW21702   0.287   4.201   1.966  0.1896 -0.8368  0.2216
 5629SOL     OW21703   3.879   4.973   2.228  0.4078  0.0669 -0.7754
 5629SOL    HW121704   3.879   4.904   2.294 -0.0912  0.7305 -0.0718
 5629SOL    HW221705   3.815   4.945   2.163 -0.7178  0.4689  0.1518
 5629SOL     MW21706   3.871   4.960   2.228  0.1998  0.2031 -0.5667
 5630SOL     OW21707   2.561   2.372   1.840  0.1463 -0.1615 -0.1039
 5630SOL    HW121708   2.565   2.327   1.924 -0.2287  0.5887  0.3129
 5630SOL    HW221709   2.648   2.411   1.830  0.5468 -1.1574 -0.5705
 5630SOL     MW21710   2.573   2.371   1.849  0.1495 -0.1926 -0.1103
 5631SOL     OW21711   5.640   5.844   3.225  0.0175  0.1884  0.5131
 5631SOL    HW121712   5.562   5.844   3.281 -2.1875  0.8946 -2.3751
 5631SOL    HW221713   5.696   5.776   3.261 -2.3637 -0.9755  2.1687
 5631SOL     MW21714   5.637   5.836   3.237 -0.5693  0.1297  0.3552
 5632SOL     OW21715   0.525   0.795   3.728  0.0732  0.2596 -0.6348
 5632SOL    HW121716   0.533   0.891   3.729 -0.3156  0.2902 -0.5196
 5632SOL    HW221717   0.583   0.766   3.799 -0.2761  0.4474 -0.2669
 5632SOL     MW21718   0.534   0.804   3.737 -0.0213  0.2876 -0.5732
 5633SOL     OW21719   2.555   3.524   2.841 -0.3509 -0.2015 -0.2531
 5633SOL    HW121720   2.578   3.446   2.892  0.5226  0.9608  1.1743
 5633SOL    HW221721   2.494   3.573   2.897 -1.2315 -0.0450 -1.3154
 5633SOL     MW21722   2.550   3.520   2.854 -0.3519 -0.0327 -0.2062
 5634SOL     OW21723   1.612   2.519   2.897  0.6019  0.2538 -0.4340
 5634SOL    HW121724   1.587   2.551   2.810  0.3247  0.4254 -0.2888
 5634SOL    HW221725   1.641   2.597   2.944  0.0851  0.2665 -0.1360
 5634SOL     MW21726   1.613   2.533   2.892  0.5003  0.2775 -0.3774
 5635SOL     OW21727   2.732   1.074   4.066 -0.2614 -0.0067  0.1923
 5635SOL    HW121728   2.786   1.000   4.091 -1.0573 -1.4937 -2.2781
 5635SOL    HW221729   2.795   1.143   4.044  0.5170 -0.3137  1.4391
 5635SOL     MW21730   2.747   1.074   4.066 -0.2635 -0.2364  0.0358
 5636SOL     OW21731   2.401   5.029   4.297 -0.5624 -0.1305  0.0555
 5636SOL    HW121732   2.460   5.073   4.235  0.6360  0.3945  1.5296
 5636SOL    HW221733   2.316   5.070   4.282  0.5144  2.7937  1.3905
 5636SOL     MW21734   2.398   5.040   4.287 -0.2711  0.3109  0.4153
 5637SOL     OW21735   3.876   3.745   4.913  0.4730  0.4952 -0.0358
 5637SOL    HW121736   3.915   3.667   4.874  1.8979  0.8500  0.6295
 5637SOL    HW221737   3.785   3.721   4.929  0.4273 -0.3798 -1.5767
 5637SOL     MW21738   3.870   3.732   4.910  0.6497  0.4289 -0.1473
 5638SOL     OW21739   0.954   1.556   1.793  0.0990 -0.4280 -0.0511
 5638SOL    HW121740   0.904   1.637   1.784  1.2798  0.3687  0.4175
 5638SOL    HW221741   0.920   1.498   1.725 -1.6264  0.0019  0.4297
 5638SOL     MW21742   0.943   1.559   1.783  0.0292 -0.2710  0.0705
 5639SOL     OW21743   0.338   1.988   4.719 -0.4914  0.8617 -0.4156
 5639SOL    HW121744   0.399   2.061   4.713 -1.0584  1.3655 -0.0864
 5639SOL    HW221745   0.309   1.987   4.810 -0.3278  0.0947 -0.3637
 5639SOL     MW21746   0.342   1.997   4.730 -0.5431  0.8281 -0.3662
 5640SOL     OW21747   3.979   1.409   2.760  0.0318 -0.2139  0.1934
 5640SOL    HW121748   3.921   1.390   2.834  0.6351 -1.0759  0.4604
 5640SOL    HW221749   3.932   1.473   2.708 -1.2163 -0.9948  0.3456
 5640SOL     MW21750   3.966   1.414   2.763 -0.0508 -0.4241  0.2470
 5641SOL     OW21751   0.101   2.159   1.650  0.2306  0.5520 -0.1967
 5641SOL    HW121752   0.193   2.166   1.675  0.0391  3.4041 -0.0622
 5641SOL    HW221753   0.099   2.179   1.556 -0.0565 -1.2907 -0.5922
 5641SOL     MW21754   0.112   2.163   1.641  0.1694  0.6812 -0.2302
 5642SOL     OW21755   2.919   5.945   2.853  0.1209  0.4290 -0.4154
 5642SOL    HW121756   2.860   5.883   2.811  0.4481 -0.5214  0.5164
 5642SOL    HW221757   2.972   5.892   2.912 -2.2456  2.0567  3.3969
 5642SOL     MW21758   2.918   5.930   2.856 -0.1400  0.5155  0.1919
 5643SOL     OW21759   3.854   5.926   4.806  0.3058  0.3543  0.3277
 5643SOL    HW121760   3.944   5.958   4.795  0.4098  0.0295  0.2204
 5643SOL    HW221761   3.859   5.834   4.781  0.1948  0.0317  1.5049
 5643SOL     MW21762   3.866   5.919   4.801  0.3049  0.2713  0.4649
 5644SOL     OW21763   1.897   4.260   3.707 -0.3848  0.8619 -0.6577
 5644SOL    HW121764   1.924   4.278   3.797 -1.0683 -1.4180  0.0305
 5644SOL    HW221765   1.977   4.274   3.655 -0.1637  2.8854  0.1795
 5644SOL     MW21766   1.911   4.264   3.712 -0.4441  0.8292 -0.4628
 5645SOL     OW21767   2.721   1.057   0.791  0.2394 -0.2989  0.1585
 5645SOL    HW121768   2.675   0.976   0.809  0.7349 -0.7681 -0.6633
 5645SOL    HW221769   2.806   1.046   0.833  1.0929 -1.0678 -1.7369
 5645SOL     MW21770   2.726   1.045   0.799  0.4125 -0.4574 -0.1893
 5646SOL     OW21771   2.939   4.068   2.381  0.2532 -0.1832 -0.2290
 5646SOL    HW121772   2.900   4.117   2.309 -0.2389  0.3716  0.4077
 5646SOL    HW221773   3.024   4.109   2.396 -0.0033  0.2429  0.0638
 5646SOL     MW21774   2.945   4.079   2.374  0.1574 -0.0577 -0.1097
 5647SOL     OW21775   1.545   4.790   2.170  0.3648 -0.5591  0.0208
 5647SOL    HW121776   1.611   4.737   2.125  0.3152  0.2910 -1.0880
 5647SOL    HW221777   1.498   4.835   2.099 -0.4907 -0.0907  0.8703
 5647SOL     MW21778   1.547   4.789   2.155  0.2490 -0.3901 -0.0126
 5648SOL     OW21779   2.869   3.522   1.007  0.0948  0.2603 -0.0792
 5648SOL    HW121780   2.781   3.485   0.999  0.5190 -0.8530  0.2745
 5648SOL    HW221781   2.856   3.617   1.004 -1.0892  0.0964 -0.2816
 5648SOL     MW21782   2.856   3.529   1.005 -0.0021  0.0968 -0.0600
 5649SOL     OW21783   1.631   4.516   1.553 -0.6469  0.1340 -0.0663
 5649SOL    HW121784   1.641   4.596   1.501  0.5640 -0.9597 -1.5285
 5649SOL    HW221785   1.611   4.448   1.488 -2.2045 -0.6708  1.2204
 5649SOL     MW21786   1.629   4.517   1.538 -0.6914 -0.1087 -0.0888
 5650SOL     OW21787   4.301   1.317   4.652 -0.1187  0.4780 -0.1315
 5650SOL    HW121788   4.255   1.234   4.663  1.0431 -0.3356 -1.3717
 5650SOL    HW221789   4.267   1.352   4.570 -0.7999  1.3810  0.5173
 5650SOL     MW21790   4.290   1.311   4.643 -0.0572  0.4894 -0.2069
 5651SOL     OW21791   0.852   5.416   5.820  0.2952  0.7779 -0.1993
 5651SOL    HW121792   0.792   5.455   5.882  0.2385 -0.1941  0.3709
 5651SOL    HW221793   0.939   5.442   5.849  0.2174  1.1361 -0.2886
 5651SOL     MW21794   0.855   5.424   5.831  0.2781  0.6995 -0.1378
 5652SOL     OW21795   3.008   4.429   1.787 -0.0367  0.6150 -0.1901
 5652SOL    HW121796   3.070   4.366   1.824 -0.0601  0.5736 -0.2225
 5652SOL    HW221797   3.064   4.492   1.740 -0.0970 -0.1795 -1.3644
 5652SOL     MW21798   3.023   4.429   1.785 -0.0474  0.5078 -0.3446
 5653SOL     OW21799   0.431   2.539   2.465  0.1017 -0.4976 -0.0564
 5653SOL    HW121800   0.465   2.572   2.548 -3.1702 -0.1049  1.1918
 5653SOL    HW221801   0.424   2.617   2.410  4.4005 -1.0543 -1.6061
 5653SOL     MW21802   0.435   2.554   2.469  0.2331 -0.5186 -0.0951
 5654SOL     OW21803   5.519   5.704   0.536 -0.4378  0.6973  0.8084
 5654SOL    HW121804   5.443   5.648   0.523 -0.5606  1.0961 -0.2617
 5654SOL    HW221805   5.532   5.747   0.451 -0.7219  2.7437  1.7601
 5654SOL     MW21806   5.511   5.703   0.523 -0.4897  1.0099  0.7933
 5655SOL     OW21807   2.814   0.538   3.747  0.7293  0.3529 -0.3321
 5655SOL    HW121808   2.813   0.631   3.727  1.6151  0.5966  0.7138
 5655SOL    HW221809   2.814   0.495   3.661 -0.7766  1.2839 -0.8059
 5655SOL     MW21810   2.814   0.544   3.733  0.6502  0.5034 -0.2587
 5656SOL     OW21811   1.874   1.839   5.196  0.1993  0.3394 -0.2718
 5656SOL    HW121812   1.961   1.876   5.205 -0.1690  0.8998  1.0090
 5656SOL    HW221813   1.825   1.872   5.271 -1.7066  1.6881 -2.0176
 5656SOL     MW21814   1.879   1.848   5.207 -0.0918  0.5838 -0.3314
 5657SOL     OW21815   1.623   3.408   4.892  0.1132  0.3948  0.1257
 5657SOL    HW121816   1.584   3.473   4.950 -0.7394  0.7513 -0.8211
 5657SOL    HW221817   1.711   3.442   4.874  1.1804 -0.7846  2.8473
 5657SOL     MW21818   1.630   3.421   4.897  0.1405  0.2894  0.3533
 5658SOL     OW21819   1.791   2.077   4.082  0.2478  0.4164 -0.4130
 5658SOL    HW121820   1.767   1.985   4.068 -0.2930  0.3071  1.1548
 5658SOL    HW221821   1.710   2.119   4.109  0.8809  0.9625  0.6815
 5658SOL     MW21822   1.778   2.070   4.084  0.2595  0.4725 -0.0720
 5659SOL     OW21823   2.491   3.092   2.775 -0.5347 -1.0419 -0.3189
 5659SOL    HW121824   2.524   3.096   2.865 -1.0553  0.8361 -0.1887
 5659SOL    HW221825   2.400   3.064   2.784 -0.7285 -0.3806 -0.2253
 5659SOL     MW21826   2.483   3.089   2.788 -0.6263 -0.7167 -0.2904
 5660SOL     OW21827   4.222   2.493   5.449 -0.3925  0.1628  0.7174
 5660SOL    HW121828   4.293   2.498   5.513  1.6119 -1.5331 -1.2728
 5660SOL    HW221829   4.252   2.548   5.376 -0.4443 -1.7083 -0.7443
 5660SOL     MW21830   4.235   2.501   5.448 -0.1426 -0.2940  0.2761
 5661SOL     OW21831   1.785   1.002   5.799 -0.4480  0.1288 -0.0190
 5661SOL    HW121832   1.802   0.950   5.878  0.4103 -0.5846 -0.6612
 5661SOL    HW221833   1.775   1.092   5.831  0.5462 -0.0565  0.8271
 5661SOL     MW21834   1.786   1.007   5.814 -0.2108  0.0138  0.0072
 5662SOL     OW21835   1.239   4.887   2.505  0.2865 -0.1944  0.1881
 5662SOL    HW121836   1.220   4.842   2.587 -1.3553 -0.3366 -0.2593
 5662SOL    HW221837   1.255   4.817   2.442  2.3542 -0.0831  0.5354
 5662SOL     MW21838   1.239   4.872   2.507  0.3411 -0.1984  0.1752
 5663SOL     OW21839   1.226   0.011   0.516 -0.6742  0.6339  0.1343
 5663SOL    HW121840   1.209   0.105   0.513 -1.5743  0.4978  0.7530
 5663SOL    HW221841   1.286  -0.005   0.443  1.0271  1.9907  1.1986
 5663SOL     MW21842   1.232   0.021   0.507 -0.5717  0.7902  0.3498
 5664SOL     OW21843   2.501   0.689   3.637 -0.1701 -0.1989 -0.5984
 5664SOL    HW121844   2.556   0.611   3.627  2.0780  1.3614 -0.7612
 5664SOL    HW221845   2.471   0.685   3.728  0.4451 -0.9293 -0.4212
 5664SOL     MW21846   2.505   0.678   3.648  0.1967 -0.0926 -0.5965
 5665SOL     OW21847   2.175   1.957   4.162 -0.1375 -0.0129 -0.2636
 5665SOL    HW121848   2.252   1.970   4.107 -0.7961  1.5950 -0.8312
 5665SOL    HW221849   2.111   1.916   4.103  0.1077 -0.9304  0.0888
 5665SOL     MW21850   2.177   1.953   4.147 -0.1903  0.0753 -0.2909
 5666SOL     OW21851   0.617   3.180   2.678 -0.1614 -0.2519 -0.1916
 5666SOL    HW121852   0.559   3.187   2.754 -1.1590 -1.4089 -0.8285
 5666SOL    HW221853   0.691   3.237   2.699 -0.2001 -0.9190  1.8485
 5666SOL     MW21854   0.619   3.188   2.690 -0.2940 -0.4857 -0.0122
 5667SOL     OW21855   2.441   1.369   4.575 -0.2641  0.3702  0.0727
 5667SOL    HW121856   2.422   1.449   4.624  4.3874  2.5920 -1.5142
 5667SOL    HW221857   2.375   1.367   4.506 -0.8360  2.4930  0.5356
 5667SOL     MW21858   2.430   1.379   4.572  0.2582  0.9263 -0.0715
 5668SOL     OW21859   3.597   1.572   3.667 -0.2511  0.5361 -0.3664
 5668SOL    HW121860   3.535   1.577   3.594 -1.3045 -1.0295  0.3875
 5668SOL    HW221861   3.583   1.485   3.704  0.7961  1.0340  1.2518
 5668SOL     MW21862   3.588   1.561   3.663 -0.2515  0.3995 -0.0625
 5669SOL     OW21863   5.320   0.095   5.039  0.4294  0.5793 -0.3822
 5669SOL    HW121864   5.389   0.042   5.078 -1.3479 -1.2406  0.3193
 5669SOL    HW221865   5.367   0.169   5.000  2.7029 -0.2379  0.7082
 5669SOL     MW21866   5.335   0.098   5.039  0.4926  0.2417 -0.1531
 5670SOL     OW21867   1.046   2.272   1.981 -0.1102  0.0699 -0.3130
 5670SOL    HW121868   0.995   2.350   1.960  0.2980  0.4602  0.1405
 5670SOL    HW221869   1.117   2.304   2.035 -0.6553 -0.8017  0.9300
 5670SOL     MW21870   1.049   2.286   1.985 -0.1278  0.0081 -0.0957
 5671SOL     OW21871   5.426   2.110   5.234 -0.0246  0.2842 -0.0934
 5671SOL    HW121872   5.509   2.143   5.198 -0.5487  1.0577 -0.5884
 5671SOL    HW221873   5.367   2.108   5.160 -0.1136 -1.4286  0.0092
 5671SOL     MW21874   5.429   2.114   5.220 -0.1035  0.1638 -0.1440
 5672SOL     OW21875   2.520   2.743   0.184  0.3454 -0.3469 -0.1819
 5672SOL    HW121876   2.554   2.786   0.105  1.9366 -1.1048  0.0742
 5672SOL    HW221877   2.513   2.813   0.249 -2.5950  0.6357 -1.4405
 5672SOL     MW21878   2.523   2.758   0.182  0.1729 -0.3183 -0.3103
 5673SOL     OW21879   5.751   1.763   3.288  0.2362  0.2563 -0.2899
 5673SOL    HW121880   5.698   1.687   3.262  1.3017 -0.2482 -1.0336
 5673SOL    HW221881   5.755   1.818   3.210 -2.1021  2.0350  0.7944
 5673SOL     MW21882   5.745   1.760   3.275  0.0730  0.4193 -0.2463
 5674SOL     OW21883   2.148   0.129   2.334 -0.5295 -0.4749  0.0192
 5674SOL    HW121884   2.059   0.104   2.308 -1.8214  2.6687  1.0902
 5674SOL    HW221885   2.150   0.113   2.429 -0.3132  0.3990  0.1680
 5674SOL     MW21886   2.137   0.124   2.343 -0.6673  0.0394  0.1752
 5675SOL     OW21887   3.801   4.097   5.687 -0.2705 -0.1460  0.1531
 5675SOL    HW121888   3.859   4.163   5.727  0.4993  0.0690 -1.2641
 5675SOL    HW221889   3.731   4.149   5.646  0.4647 -0.1599 -1.1704
 5675SOL     MW21890   3.799   4.112   5.687 -0.0782 -0.1202 -0.1974
 5676SOL     OW21891   2.236   2.434   3.946  0.1909 -0.2399 -0.2154
 5676SOL    HW121892   2.292   2.364   3.913  1.0508  0.7378 -0.8810
 5676SOL    HW221893   2.240   2.502   3.878  0.9010  1.2625  1.2847
 5676SOL     MW21894   2.243   2.434   3.933  0.3915  0.0775 -0.1085
 5677SOL     OW21895   0.800   1.465   2.364 -0.3377  0.2211 -0.0345
 5677SOL    HW121896   0.778   1.514   2.443 -1.0984 -1.3608  0.7595
 5677SOL    HW221897   0.767   1.519   2.292  3.6865  3.4870  0.4431
 5677SOL     MW21898   0.793   1.478   2.365  0.0801  0.4367  0.1283
 5678SOL     OW21899   1.693   2.573   4.560  0.3754  0.3758  0.0582
 5678SOL    HW121900   1.655   2.661   4.547  1.9749  1.1098  0.2937
 5678SOL    HW221901   1.748   2.582   4.637  2.0561 -0.3433 -1.0407
 5678SOL     MW21902   1.695   2.586   4.568  0.7955  0.3779 -0.0520
 5679SOL     OW21903   1.776   2.834   0.145  0.4889 -0.7404 -0.1417
 5679SOL    HW121904   1.749   2.775   0.215  3.5065  0.5318  2.1577
 5679SOL    HW221905   1.863   2.802   0.119  0.6132  0.5474 -1.3722
 5679SOL     MW21906   1.783   2.822   0.150  0.8911 -0.4127 -0.0049
 5680SOL     OW21907   1.301   5.199   0.130  0.1967  0.2588 -0.3531
 5680SOL    HW121908   1.324   5.198   0.223 -0.1566 -0.2014 -0.2650
 5680SOL    HW221909   1.379   5.164   0.086 -0.4121 -1.5586 -0.0332
 5680SOL     MW21910   1.314   5.194   0.136  0.0736 -0.0329 -0.3009
 5681SOL     OW21911   1.757   1.439   1.388  0.0916  0.0580 -0.1601
 5681SOL    HW121912   1.808   1.409   1.463 -1.0457  2.4890  1.6826
 5681SOL    HW221913   1.674   1.392   1.394  0.3098 -0.3585 -0.3859
 5681SOL     MW21914   1.753   1.429   1.398 -0.0260  0.3160  0.0468
 5682SOL     OW21915   5.535   4.118   2.418  0.5033 -0.4827 -0.2904
 5682SOL    HW121916   5.490   4.160   2.492 -0.0741 -1.0133 -0.3356
 5682SOL    HW221917   5.488   4.035   2.406  0.8211 -0.5551 -1.0282
 5682SOL     MW21918   5.523   4.113   2.426  0.4702 -0.5593 -0.3905
 5683SOL     OW21919   1.495   0.693   2.692  0.2881 -0.2206 -0.9000
 5683SOL    HW121920   1.434   0.757   2.728 -0.4214 -1.5005  0.2562
 5683SOL    HW221921   1.581   0.726   2.717 -0.1729 -0.9874  1.9464
 5683SOL     MW21922   1.498   0.705   2.700  0.1383 -0.4826 -0.3874
 5684SOL     OW21923   5.159   5.708   5.546  0.2405  0.3168 -0.0130
 5684SOL    HW121924   5.139   5.802   5.537  1.0900  0.3370 -1.9580
 5684SOL    HW221925   5.254   5.705   5.554  0.4339 -0.5211 -2.3721
 5684SOL     MW21926   5.168   5.720   5.546  0.3743  0.2117 -0.5641
 5685SOL     OW21927   4.769   5.237   3.414 -0.0009 -0.2529 -0.0385
 5685SOL    HW121928   4.726   5.309   3.367 -1.3127 -0.4030  0.8946
 5685SOL    HW221929   4.754   5.160   3.359  0.5100 -0.0066 -0.5279
 5685SOL     MW21930   4.762   5.236   3.401 -0.1035 -0.2403  0.0181
 5686SOL     OW21931   5.870   2.180   2.547 -0.1997  0.5106 -1.0589
 5686SOL    HW121932   5.898   2.270   2.531 -0.8093  0.6921 -1.1342
 5686SOL    HW221933   5.927   2.126   2.491  2.4450  0.5512  1.4792
 5686SOL     MW21934   5.881   2.184   2.537  0.0606  0.5388 -0.7436
 5687SOL     OW21935   0.958   4.166   3.103  0.1329 -0.3957  0.3019
 5687SOL    HW121936   0.947   4.200   3.015 -1.3865  1.9078  1.3203
 5687SOL    HW221937   0.981   4.074   3.091 -1.2085 -0.4262 -2.4572
 5687SOL     MW21938   0.959   4.159   3.091 -0.2334 -0.1049  0.0792
 5688SOL     OW21939   2.075   2.864   1.885  0.0721  0.6286  0.2033
 5688SOL    HW121940   1.984   2.859   1.856  1.0828 -1.5085 -2.8420
 5688SOL    HW221941   2.125   2.883   1.805  2.3106  2.0814  1.8609
 5688SOL     MW21942   2.070   2.866   1.871  0.4878  0.5412  0.0257
 5689SOL     OW21943   2.882   5.840   5.498 -0.2319  0.1469 -0.1723
 5689SOL    HW121944   2.810   5.896   5.469 -0.8995  0.0317  1.2400
 5689SOL    HW221945   2.923   5.811   5.417  0.7775  3.5053 -0.9368
 5689SOL     MW21946   2.878   5.844   5.484 -0.1881  0.5627 -0.0892
 5690SOL     OW21947   3.160   1.865   3.907 -0.7540 -0.5051 -0.4725
 5690SOL    HW121948   3.236   1.894   3.959  0.4475 -0.2399 -2.3232
 5690SOL    HW221949   3.101   1.940   3.908  0.3824  0.4153 -1.5720
 5690SOL     MW21950   3.162   1.878   3.914 -0.4547 -0.3533 -0.8500
 5691SOL     OW21951   0.568   2.340   3.836 -0.6535 -0.2999  0.5604
 5691SOL    HW121952   0.531   2.283   3.769 -2.3754  0.0178  1.2235
 5691SOL    HW221953   0.641   2.383   3.793 -1.8859  0.0793 -1.1983
 5691SOL     MW21954   0.573   2.338   3.822 -1.0317 -0.2105  0.4201
 5692SOL     OW21955   4.255   1.479   4.881 -0.5288 -0.0269 -0.4683
 5692SOL    HW121956   4.295   1.412   4.827  1.5869  1.5168 -0.8385
 5692SOL    HW221957   4.214   1.430   4.953  1.5503 -1.6599 -0.3672
 5692SOL     MW21958   4.255   1.464   4.883  0.0091 -0.0383 -0.5026
 5693SOL     OW21959   4.581   4.851   0.767 -0.2871 -1.0635 -0.0158
 5693SOL    HW121960   4.602   4.903   0.844  0.8958 -0.8668 -0.4565
 5693SOL    HW221961   4.638   4.774   0.773  0.2274 -0.7708 -0.9863
 5693SOL     MW21962   4.591   4.848   0.777 -0.0696 -1.0004 -0.1965
 5694SOL     OW21963   0.271   2.079   5.560 -0.0287 -0.0393 -0.0213
 5694SOL    HW121964   0.316   2.127   5.629 -0.7377  0.1299  0.3309
 5694SOL    HW221965   0.240   2.147   5.500  0.8819 -0.2072 -0.6929
 5694SOL     MW21966   0.273   2.094   5.561 -0.0029 -0.0391 -0.0625
 5695SOL     OW21967   5.656   2.696   3.775 -0.7579  0.5674 -0.5131
 5695SOL    HW121968   5.576   2.699   3.724 -1.1425  2.5420  0.1626
 5695SOL    HW221969   5.702   2.777   3.754  0.7772 -0.2403 -0.4112
 5695SOL     MW21970   5.652   2.706   3.766 -0.6108  0.7167 -0.4134
 5696SOL     OW21971   5.750   2.307   0.871  0.4365  0.3454  0.1471
 5696SOL    HW121972   5.835   2.351   0.882  1.0525 -0.8717  0.3228
 5696SOL    HW221973   5.686   2.378   0.880  1.4979  1.6273 -1.9908
 5696SOL     MW21974   5.753   2.322   0.874  0.6518  0.3536 -0.1041
 5697SOL     OW21975   1.114   1.254   5.073 -0.2613  0.1484  0.1350
 5697SOL    HW121976   1.065   1.186   5.028  0.1783 -1.6481  2.2396
 5697SOL    HW221977   1.058   1.280   5.146 -0.2294  1.7393 -0.3880
 5697SOL     MW21978   1.101   1.249   5.077 -0.2010  0.1221  0.3376
 5698SOL     OW21979   3.999   4.126   0.200  1.0029  0.6664 -0.1752
 5698SOL    HW121980   4.091   4.153   0.205  1.1157  0.6922 -2.0558
 5698SOL    HW221981   4.003   4.030   0.199  0.8430  0.6074  2.2785
 5698SOL     MW21982   4.011   4.117   0.200  0.9975  0.6623 -0.1018
 5699SOL     OW21983   1.260   0.211   3.855 -0.1671 -0.1964 -0.1990
 5699SOL    HW121984   1.170   0.214   3.888  0.4673  2.3962  1.3520
 5699SOL    HW221985   1.252   0.238   3.763 -0.8664  0.9391  0.1835
 5699SOL     MW21986   1.248   0.215   3.847 -0.1755  0.2808  0.0486
 5700SOL     OW21987   2.861   0.298   3.028 -0.3702 -0.2906 -0.3164
 5700SOL    HW121988   2.879   0.364   3.094 -0.4365  0.4853 -1.0563
 5700SOL    HW221989   2.787   0.334   2.978 -0.7732 -1.1854 -0.3704
 5700SOL     MW21990   2.853   0.311   3.030 -0.4301 -0.3058 -0.4179
 5701SOL     OW21991   2.892   5.673   2.010  0.6045  0.4186 -0.3347
 5701SOL    HW121992   2.849   5.600   2.055 -1.3639  1.6050 -0.2494
 5701SOL    HW221993   2.922   5.731   2.080  1.0271  0.3380 -0.4462
 5701SOL     MW21994   2.890   5.671   2.025  0.4065  0.5603 -0.3381
 5702SOL     OW21995   0.971   1.449   4.760  0.5333 -0.1242  0.2499
 5702SOL    HW121996   0.982   1.509   4.834 -0.3180 -0.2981  0.5222
 5702SOL    HW221997   0.959   1.506   4.684 -0.3527  0.0651  0.5192
 5702SOL     MW21998   0.971   1.464   4.760  0.3109 -0.1222  0.3190
 5703SOL     OW21999   5.499   3.101   0.863  0.2603 -0.1639 -0.4338
 5703SOL    HW122000   5.502   3.142   0.950  3.1326 -0.9268 -0.1391
 5703SOL    HW222001   5.481   3.009   0.880  1.3992 -0.4190 -0.6175
 5703SOL     MW22002   5.497   3.095   0.876  0.7739 -0.2942 -0.4196
 5704SOL     OW22003   0.298   5.387   4.395  0.2214 -0.0501  0.6386
 5704SOL    HW122004   0.383   5.427   4.378 -0.4422  1.4796  0.8906
 5704SOL    HW222005   0.266   5.431   4.474 -0.3205 -1.3981  1.1959
 5704SOL     MW22006   0.305   5.398   4.403  0.0671 -0.0267  0.7420
 5705SOL     OW22007   0.942   5.903   0.496 -0.2200  0.3504 -0.0376
 5705SOL    HW122008   0.928   5.869   0.584 -2.4598 -0.1783 -0.5613
 5705SOL    HW222009   1.029   5.944   0.499 -0.9439  1.7416  2.8290
 5705SOL     MW22010   0.952   5.904   0.507 -0.5994  0.4611  0.2623
 5706SOL     OW22011   5.873   1.108   2.815  0.5483  0.1515 -0.1100
 5706SOL    HW122012   5.780   1.128   2.810  0.9348  2.2578  0.5755
 5706SOL    HW222013   5.913   1.160   2.745  1.1567 -1.1186 -0.7248
 5706SOL     MW22014   5.866   1.117   2.806  0.6757  0.2587 -0.1011
 5707SOL     OW22015   5.354   1.028   4.280  0.2564 -0.0269 -0.3728
 5707SOL    HW122016   5.327   1.090   4.212 -1.2919 -0.8703 -0.5458
 5707SOL    HW222017   5.435   1.065   4.315 -0.9523  2.4495 -0.0507
 5707SOL     MW22018   5.360   1.041   4.276 -0.0968  0.1824 -0.3543
 5708SOL     OW22019   0.840   4.673   0.040 -0.2884 -0.0671 -0.0192
 5708SOL    HW122020   0.917   4.700   0.089 -1.0205 -1.1835  1.7992
 5708SOL    HW222021   0.873   4.656  -0.048  1.9080 -2.3281  1.1764
 5708SOL     MW22022   0.854   4.675   0.035 -0.1009 -0.4992  0.3666
 5709SOL     OW22023   0.198   1.270   3.224 -0.9166  0.2265 -0.1923
 5709SOL    HW122024   0.271   1.215   3.195  0.0084  1.0877  0.4679
 5709SOL    HW222025   0.212   1.354   3.181 -1.4316  0.4520  0.0651
 5709SOL     MW22026   0.209   1.274   3.215 -0.8641  0.3657 -0.0746
 5710SOL     OW22027   2.618   1.804   5.232  0.2617 -0.1015 -0.0693
 5710SOL    HW122028   2.687   1.848   5.182  0.2027 -2.1066 -1.9401
 5710SOL    HW222029   2.625   1.712   5.208 -2.9122 -0.3844 -0.0640
 5710SOL     MW22030   2.628   1.798   5.223 -0.1521 -0.3943 -0.3080
 5711SOL     OW22031   2.569   0.464   4.019 -0.0403  0.0613 -0.0082
 5711SOL    HW122032   2.615   0.544   3.995  0.1046  0.1853  0.6886
 5711SOL    HW222033   2.484   0.471   3.974  0.3775  0.1011 -0.8147
 5711SOL     MW22034   2.564   0.475   4.010  0.0319  0.0823 -0.0219
 5712SOL     OW22035   4.375   2.154   4.339  0.4780  0.2793 -0.5609
 5712SOL    HW122036   4.396   2.163   4.246  0.5821  0.4109 -0.5265
 5712SOL    HW222037   4.419   2.074   4.366  1.4043  0.8487 -0.3606
 5712SOL     MW22038   4.383   2.145   4.330  0.6104  0.3691 -0.5312
 5713SOL     OW22039   1.520   4.137   2.088  0.7173  0.0967  0.1739
 5713SOL    HW122040   1.475   4.220   2.100  1.1006  0.6116 -1.7604
 5713SOL    HW222041   1.551   4.114   2.175 -1.1692  0.9371  1.1000
 5713SOL     MW22042   1.518   4.145   2.101  0.5249  0.2704  0.0451
 5714SOL     OW22043   0.960   2.496   0.004 -0.1597 -0.3783 -0.1709
 5714SOL    HW122044   1.036   2.508   0.061  1.0565  0.4717 -1.9239
 5714SOL    HW222045   0.907   2.575   0.017  1.1870  0.8122 -1.7895
 5714SOL     MW22046   0.963   2.508   0.013  0.1684 -0.1173 -0.6027
 5715SOL     OW22047   4.723   3.397   2.356 -0.2333 -0.0937 -0.3850
 5715SOL    HW122048   4.661   3.469   2.347  0.1562  0.1152 -1.5348
 5715SOL    HW222049   4.802   3.437   2.393  0.0908  0.1384 -1.3154
 5715SOL     MW22050   4.725   3.411   2.359 -0.1421 -0.0370 -0.6511
 5716SOL     OW22051   2.576   3.977   2.189  0.1998 -0.2052  0.3637
 5716SOL    HW122052   2.609   4.038   2.254  0.9060 -1.1609  0.9033
 5716SOL    HW222053   2.583   3.891   2.230 -1.9275 -0.5489  0.0809
 5716SOL     MW22054   2.581   3.974   2.202  0.0176 -0.3717  0.3967
 5717SOL     OW22055   4.997   1.723   4.188 -0.0450 -0.1411  0.0488
 5717SOL    HW122056   4.916   1.707   4.236  0.2824 -0.5851  0.4737
 5717SOL    HW222057   5.031   1.635   4.171  0.0635  0.0312 -0.6127
 5717SOL     MW22058   4.991   1.709   4.192  0.0110 -0.1758  0.0181
 5718SOL     OW22059   2.150   4.626   2.941  0.6020 -0.1294 -0.5309
 5718SOL    HW122060   2.109   4.557   2.888 -0.2310  1.4656 -1.9953
 5718SOL    HW222061   2.144   4.705   2.888 -0.4424  1.5895  2.0346
 5718SOL     MW22062   2.144   4.627   2.927  0.3617  0.2952 -0.3898
 5719SOL     OW22063   5.859   0.247   5.367  0.2714 -0.6423  0.2909
 5719SOL    HW122064   5.833   0.198   5.445  1.5275 -1.0746  0.4527
 5719SOL    HW222065   5.955   0.249   5.371  0.3301 -0.3378 -1.0364
 5719SOL     MW22066   5.868   0.241   5.377  0.4396 -0.6587  0.1416
 5720SOL     OW22067   0.435   5.489   0.123 -0.1102  0.2625  0.0050
 5720SOL    HW122068   0.429   5.395   0.110 -1.1956  0.2695  0.3898
 5720SOL    HW222069   0.428   5.526   0.035 -1.7154  0.0657  0.0430
 5720SOL     MW22070   0.434   5.482   0.110 -0.4546  0.2379  0.0591
 5721SOL     OW22071   4.725   1.708   4.227  0.7249 -0.2221  0.0973
 5721SOL    HW122072   4.682   1.774   4.173  0.6564 -0.1513  0.2374
 5721SOL    HW222073   4.723   1.628   4.175 -0.0388 -0.3483  0.3202
 5721SOL     MW22074   4.719   1.706   4.214  0.6185 -0.2292  0.1431
 5722SOL     OW22075   2.587   3.832   1.456  0.3962 -0.3128 -0.6660
 5722SOL    HW122076   2.553   3.844   1.368  1.4197  0.2513 -0.9811
 5722SOL    HW222077   2.682   3.823   1.445  0.5505 -0.0501  0.3923
 5722SOL     MW22078   2.595   3.832   1.444  0.5469 -0.2069 -0.5710
 5723SOL     OW22079   3.940   4.691   5.541 -0.9257 -0.1306 -0.2689
 5723SOL    HW122080   3.874   4.722   5.479 -2.4433  1.1816  1.9196
 5723SOL    HW222081   3.889   4.648   5.610  0.6088 -0.2108  0.8279
 5723SOL     MW22082   3.925   4.689   5.542 -0.9236  0.0272  0.1521
 5724SOL     OW22083   3.472   4.500   0.352  0.2038  0.0502 -0.0574
 5724SOL    HW122084   3.483   4.581   0.402  2.1465 -1.0920  1.4197
 5724SOL    HW222085   3.384   4.471   0.373 -0.5310  1.7832 -0.6314
 5724SOL     MW22086   3.462   4.507   0.361  0.3583  0.1259  0.0582
 5725SOL     OW22087   3.484   5.409   4.732  0.1971  0.1165  0.3158
 5725SOL    HW122088   3.425   5.335   4.715 -0.1492 -0.1404  2.4937
 5725SOL    HW222089   3.463   5.472   4.663  0.6635 -1.8872 -1.7238
 5725SOL     MW22090   3.473   5.407   4.721  0.2124 -0.1731  0.3338
 5726SOL     OW22091   1.482   3.560   4.176 -0.4922  0.3447 -0.4209
 5726SOL    HW122092   1.510   3.548   4.086 -1.5459 -0.6363 -0.6342
 5726SOL    HW222093   1.404   3.615   4.170 -0.1339  0.8976 -0.0463
 5726SOL     MW22094   1.476   3.566   4.164 -0.5810  0.2899 -0.4001
 5727SOL     OW22095   1.100   3.561   0.776 -0.1952 -0.5847  0.2496
 5727SOL    HW122096   1.011   3.542   0.746 -1.1128  0.8149  2.0110
 5727SOL    HW222097   1.122   3.488   0.834 -1.1281  0.2954  1.7153
 5727SOL     MW22098   1.091   3.549   0.779 -0.4320 -0.2930  0.6627
 5728SOL     OW22099   1.151   0.169   5.210  0.3257  0.0839 -0.2575
 5728SOL    HW122100   1.190   0.092   5.170  1.6526 -0.1648  1.4661
 5728SOL    HW222101   1.186   0.243   5.160  0.7907 -0.3006 -0.4987
 5728SOL     MW22102   1.161   0.169   5.199  0.5553  0.0028 -0.0677
 5729SOL     OW22103   5.096   2.513   4.657  0.1454 -0.3376 -0.3635
 5729SOL    HW122104   5.102   2.537   4.565  0.2000  0.0912 -0.2525
 5729SOL    HW222105   5.065   2.423   4.657 -0.7386 -0.0469 -0.7841
 5729SOL     MW22106   5.093   2.505   4.645  0.0396 -0.2456 -0.4034
 5730SOL     OW22107   0.397   4.860   4.348  0.2601  0.2587 -0.2974
 5730SOL    HW122108   0.391   4.955   4.338 -1.5326  0.5635  3.0648
 5730SOL    HW222109   0.332   4.825   4.287 -1.0386  1.3343  0.4457
 5730SOL     MW22110   0.388   4.867   4.339 -0.1357  0.4354  0.2284
 5731SOL     OW22111   0.106   0.601   0.342  0.0957  0.4704 -0.7971
 5731SOL    HW122112   0.086   0.570   0.254  0.1942 -1.1537 -0.2596
 5731SOL    HW222113   0.199   0.583   0.353  0.1546  0.9650 -0.4729
 5731SOL     MW22114   0.115   0.595   0.332  0.1158  0.3259 -0.6868
 5732SOL     OW22115   1.596   0.389   2.663  0.0582  0.2308  0.2020
 5732SOL    HW122116   1.545   0.452   2.612 -0.9131 -0.3640  0.4276
 5732SOL    HW222117   1.569   0.404   2.754 -0.5918 -0.8769  0.2011
 5732SOL     MW22118   1.586   0.399   2.668 -0.1494  0.0129  0.2308
 5733SOL     OW22119   1.332   3.607   2.358 -0.2684  0.2032 -0.1839
 5733SOL    HW122120   1.351   3.518   2.327  1.7523  0.9326 -1.1511
 5733SOL    HW222121   1.379   3.664   2.297 -0.9877  1.9175  0.8281
 5733SOL     MW22122   1.341   3.603   2.346 -0.1019  0.5159 -0.1781
 5734SOL     OW22123   0.126   2.589   0.277 -0.1064  0.6997 -0.8208
 5734SOL    HW122124   0.047   2.545   0.245  1.5230 -1.0820 -2.5241
 5734SOL    HW222125   0.184   2.517   0.303  1.2868  1.9662 -0.3579
 5734SOL     MW22126   0.124   2.574   0.276  0.2805  0.6337 -0.9795
 5735SOL     OW22127   1.190   4.195   3.705 -0.7895  0.3158 -0.8008
 5735SOL    HW122128   1.274   4.235   3.725  1.1444 -3.0510 -1.8452
 5735SOL    HW222129   1.148   4.183   3.791  0.1873  1.0847 -0.2040
 5735SOL     MW22130   1.195   4.199   3.719 -0.4168 -0.0167 -0.8578
 5736SOL     OW22131   4.537   4.271   4.540 -0.1213 -0.6112  0.3046
 5736SOL    HW122132   4.564   4.276   4.631  2.3367  0.3850 -0.4262
 5736SOL    HW222133   4.446   4.242   4.543 -0.1079 -0.4816  3.0533
 5736SOL     MW22134   4.529   4.268   4.552  0.1950 -0.4668  0.5627
 5737SOL     OW22135   1.068   1.579   4.196  0.0141 -0.7599 -0.2822
 5737SOL    HW122136   1.133   1.570   4.265  0.6380  2.0567 -0.4175
 5737SOL    HW222137   1.118   1.568   4.115  0.3280  1.1435 -0.3782
 5737SOL     MW22138   1.083   1.576   4.194  0.1342 -0.1556 -0.3114
 5738SOL     OW22139   4.534   1.064   0.296  0.7126 -0.6049 -0.0549
 5738SOL    HW122140   4.498   1.144   0.334  0.7197  0.7788 -2.7887
 5738SOL    HW222141   4.479   0.994   0.331 -1.9933  1.0367 -0.7840
 5738SOL     MW22142   4.522   1.066   0.305  0.3676 -0.2177 -0.4982
 5739SOL     OW22143   3.065   2.613   4.669  0.8908 -0.0528 -0.1405
 5739SOL    HW122144   2.976   2.591   4.640  0.9450 -0.5391  0.0646
 5739SOL    HW222145   3.061   2.706   4.690  0.2036 -0.2674  0.7084
 5739SOL     MW22146   3.053   2.622   4.668  0.8097 -0.1426 -0.0057
 5740SOL     OW22147   4.815   5.446   4.609 -0.1826 -0.3902 -0.2874
 5740SOL    HW122148   4.812   5.357   4.644  1.3500 -0.4230 -0.2396
 5740SOL    HW222149   4.782   5.500   4.681 -0.6161 -0.8470 -0.1304
 5740SOL     MW22150   4.810   5.441   4.623 -0.0420 -0.4530 -0.2613
 5741SOL     OW22151   1.513   1.674   5.571 -0.0435  0.2331 -0.2356
 5741SOL    HW122152   1.504   1.586   5.534 -0.3616  0.5023 -0.8053
 5741SOL    HW222153   1.424   1.699   5.595  0.1853 -0.0119  0.8915
 5741SOL     MW22154   1.501   1.665   5.570 -0.0548  0.2362 -0.1645
 5742SOL     OW22155   0.459   4.573   1.919 -0.4130  0.2727 -0.5309
 5742SOL    HW122156   0.395   4.552   1.851 -0.5118  2.2121 -1.0591
 5742SOL    HW222157   0.414   4.556   2.001 -1.0565  0.0778 -0.9261
 5742SOL     MW22158   0.445   4.568   1.921 -0.5080  0.4964 -0.6492
 5743SOL     OW22159   2.957   1.846   5.627  0.2379 -0.3661  0.1953
 5743SOL    HW122160   2.893   1.917   5.615 -0.6707 -1.1805  0.1505
 5743SOL    HW222161   2.996   1.864   5.712 -0.1049  0.1021  0.2592
 5743SOL     MW22162   2.954   1.858   5.636  0.0777 -0.4103  0.1979
 5744SOL     OW22163   5.109   4.044   0.382 -0.2378  0.1861 -0.9400
 5744SOL    HW122164   5.050   4.097   0.435 -0.0101 -0.3384 -0.1495
 5744SOL    HW222165   5.171   4.007   0.444  2.0950  2.1978 -1.9803
 5744SOL     MW22166   5.110   4.046   0.396  0.0896  0.3762 -0.9720
 5745SOL     OW22167   5.932   3.550   0.194 -0.3285 -0.0567  0.0509
 5745SOL    HW122168   5.952   3.463   0.161  1.5474  0.3247  0.1527
 5745SOL    HW222169   5.870   3.535   0.266  2.7950 -1.6351  2.5158
 5745SOL     MW22170   5.926   3.537   0.199  0.3114 -0.2100  0.3795
 5746SOL     OW22171   5.748   2.531   2.126  0.0239  0.0706 -0.3001
 5746SOL    HW122172   5.663   2.536   2.081  0.0950 -0.5276 -0.5113
 5746SOL    HW222173   5.769   2.437   2.125  1.9867  0.5091 -2.6366
 5746SOL     MW22174   5.740   2.519   2.120  0.2842  0.0503 -0.6263
 5747SOL     OW22175   1.515   2.127   4.092 -0.6229  0.4584 -0.5199
 5747SOL    HW122176   1.482   2.206   4.135  0.6199  0.8667 -0.2760
 5747SOL    HW222177   1.440   2.092   4.045 -1.5466  1.0054  0.5242
 5747SOL     MW22178   1.501   2.133   4.091 -0.5821  0.5808 -0.3552
 5748SOL     OW22179   1.581   5.823   5.242 -0.2738  0.4584 -0.4680
 5748SOL    HW122180   1.659   5.877   5.252  0.0515  0.2166 -1.5935
 5748SOL    HW222181   1.545   5.849   5.157 -0.5095 -0.5920 -0.6951
 5748SOL     MW22182   1.586   5.833   5.232 -0.2621  0.2928 -0.6409
 5749SOL     OW22183   1.513   4.057   1.062 -0.0933  0.3200 -0.0491
 5749SOL    HW122184   1.562   4.035   1.142 -1.2171  0.8072  0.7931
 5749SOL    HW222185   1.469   3.975   1.038  1.5840 -0.2752 -1.1444
 5749SOL     MW22186   1.514   4.043   1.069 -0.0225  0.3061 -0.0814
 5750SOL     OW22187   4.532   0.327   0.656 -0.0867 -0.3917  0.0425
 5750SOL    HW122188   4.591   0.367   0.592  0.1376  1.0701  1.1476
 5750SOL    HW222189   4.590   0.290   0.722 -0.3802  0.0362  0.5386
 5750SOL     MW22190   4.547   0.327   0.656 -0.0958 -0.1498  0.2475
 5751SOL     OW22191   5.880   2.368   0.427 -0.1414 -0.1875 -0.4389
 5751SOL    HW122192   5.953   2.316   0.459 -0.7043  0.5991  2.2504
 5751SOL    HW222193   5.802   2.319   0.453 -0.6365  0.8648  0.1005
 5751SOL     MW22194   5.879   2.355   0.434 -0.2770  0.0479 -0.0256
 5752SOL     OW22195   1.935   3.778   5.335  0.2272  0.0869 -0.6277
 5752SOL    HW122196   1.893   3.727   5.265 -0.8804 -0.0467  0.1285
 5752SOL    HW222197   1.947   3.865   5.297 -0.6518  0.1022 -0.8748
 5752SOL     MW22198   1.931   3.782   5.321 -0.0272  0.0720 -0.5622
 5753SOL     OW22199   1.510   2.884   1.917 -0.1923 -0.2820  0.1710
 5753SOL    HW122200   1.490   2.975   1.893 -0.7086 -0.0742  1.3300
 5753SOL    HW222201   1.484   2.833   1.841 -3.4215  0.1992  0.8749
 5753SOL     MW22202   1.504   2.889   1.904 -0.6716 -0.1938  0.4095
 5754SOL     OW22203   4.436   2.066   0.024 -0.2625 -0.0186  0.5879
 5754SOL    HW122204   4.402   2.154   0.039  2.8121  1.0648  1.5288
 5754SOL    HW222205   4.403   2.015   0.098  1.6388  1.4878  2.5638
 5754SOL     MW22206   4.428   2.071   0.036  0.3738  0.3130  0.9612
 5755SOL     OW22207   0.396   3.873   4.048 -0.9300 -0.0491 -0.3179
 5755SOL    HW122208   0.394   3.931   4.125  3.6301  0.3715 -0.3799
 5755SOL    HW222209   0.450   3.920   3.985  0.1310 -2.9382 -1.6091
 5755SOL     MW22210   0.403   3.887   4.050 -0.2104 -0.3650 -0.4911
 5756SOL     OW22211   3.062   0.581   4.025 -0.2527  0.7019  0.6419
 5756SOL    HW122212   3.082   0.521   4.097 -2.4294  1.1766  1.6935
 5756SOL    HW222213   2.969   0.567   4.007 -0.0338  1.5123 -1.2238
 5756SOL     MW22214   3.052   0.572   4.032 -0.5033  0.8664  0.5374
 5757SOL     OW22215   4.134   3.163   4.312 -0.1694  0.5437 -0.4321
 5757SOL    HW122216   4.062   3.101   4.297  0.6296 -0.8025  1.0524
 5757SOL    HW222217   4.128   3.183   4.406  2.9467 -1.6716  0.3155
 5757SOL     MW22218   4.124   3.157   4.322  0.3314  0.0877 -0.1464
 5758SOL     OW22219   0.221   0.443   4.015 -0.5182  0.2187 -0.4270
 5758SOL    HW122220   0.208   0.417   4.106  3.4025 -1.0748 -0.1521
 5758SOL    HW222221   0.234   0.538   4.019  0.0413  0.1078  0.3963
 5758SOL     MW22222   0.221   0.452   4.027  0.0553  0.0389 -0.2866
 5759SOL     OW22223   4.336   0.175   4.450  0.1255  0.1646  0.1439
 5759SOL    HW122224   4.377   0.117   4.386  0.4189 -0.0389  0.5115
 5759SOL    HW222225   4.396   0.249   4.456  0.1421  0.1426  0.2476
 5759SOL     MW22226   4.349   0.177   4.443  0.1650  0.1357  0.2041
 5760SOL     OW22227   1.329   3.954   2.141  0.1226 -0.1030  0.5217
 5760SOL    HW122228   1.372   3.869   2.135  1.4656  0.6704 -1.2773
 5760SOL    HW222229   1.399   4.018   2.127 -1.1121  1.2572  0.3802
 5760SOL     MW22230   1.343   3.951   2.138  0.1365  0.1700  0.2735
 5761SOL     OW22231   5.620   2.738   1.352 -0.1445  0.1976  0.2334
 5761SOL    HW122232   5.538   2.780   1.381 -0.2972  0.6299 -0.8235
 5761SOL    HW222233   5.656   2.797   1.287  0.5216 -0.4810 -0.0238
 5761SOL     MW22234   5.614   2.751   1.348 -0.0787  0.1662  0.0651
 5762SOL     OW22235   5.304   2.760   4.966 -0.0881  0.0761  0.0338
 5762SOL    HW122236   5.320   2.854   4.974  0.2218  0.1479 -1.3313
 5762SOL    HW222237   5.208   2.752   4.965 -0.1256  0.2276  1.7170
 5762SOL     MW22238   5.294   2.771   4.967 -0.0529  0.1044  0.0739
 5763SOL     OW22239   3.082   1.718   2.632  0.1933 -0.2794 -0.0883
 5763SOL    HW122240   3.154   1.698   2.573 -0.1230  0.0640 -0.5877
 5763SOL    HW222241   3.047   1.802   2.602  0.7616  0.4678  1.2957
 5763SOL     MW22242   3.087   1.726   2.621  0.2258 -0.1398  0.0248
 5764SOL     OW22243   2.848   0.369   3.514 -0.4171 -0.0590  0.6869
 5764SOL    HW122244   2.943   0.378   3.523 -0.4174  0.0153  0.6084
 5764SOL    HW222245   2.834   0.274   3.512 -0.1394 -0.0861 -1.5110
 5764SOL     MW22246   2.858   0.358   3.515 -0.3817 -0.0530  0.3955
 5765SOL     OW22247   0.726   0.224   3.725 -0.0928 -0.1939 -0.1454
 5765SOL    HW122248   0.804   0.217   3.779  0.1501  0.9393 -0.3270
 5765SOL    HW222249   0.759   0.238   3.636 -0.4969 -0.8075 -0.4003
 5765SOL     MW22250   0.740   0.225   3.721 -0.1134 -0.1274 -0.2015
 5766SOL     OW22251   5.218   2.165   3.362 -0.0421 -0.2765  0.1461
 5766SOL    HW122252   5.210   2.139   3.453 -1.2751 -2.1231 -0.4711
 5766SOL    HW222253   5.286   2.108   3.326  1.0683  1.0374  0.0931
 5766SOL     MW22254   5.226   2.155   3.369 -0.0582 -0.3445  0.0601
 5767SOL     OW22255   0.702   2.212   2.288  0.4469 -0.3961 -0.2576
 5767SOL    HW122256   0.733   2.286   2.235 -0.2707 -0.2542 -0.4752
 5767SOL    HW222257   0.779   2.155   2.297  0.9315  0.2446 -0.3121
 5767SOL     MW22258   0.716   2.214   2.283  0.4171 -0.2959 -0.2923
 5768SOL     OW22259   5.317   0.254   2.828  0.9027 -0.2693 -0.7714
 5768SOL    HW122260   5.304   0.214   2.742  0.0718  0.9890 -1.2487
 5768SOL    HW222261   5.334   0.346   2.809  1.5187 -0.1374  0.3753
 5768SOL     MW22262   5.318   0.261   2.814  0.8755 -0.0913 -0.6855
 5769SOL     OW22263   3.647   2.348   0.549  0.1758 -0.5761 -0.1236
 5769SOL    HW122264   3.686   2.435   0.542  0.6987 -0.6731  1.3644
 5769SOL    HW222265   3.596   2.338   0.469 -1.3509  1.8173  0.4904
 5769SOL     MW22266   3.645   2.358   0.538  0.0470 -0.2820  0.1454
 5770SOL     OW22267   3.454   3.708   0.305  0.1902  0.0554 -0.1588
 5770SOL    HW122268   3.516   3.686   0.236  0.0993  0.2063 -0.2903
 5770SOL    HW222269   3.377   3.743   0.258 -1.0991 -2.6978 -0.1701
 5770SOL     MW22270   3.452   3.710   0.290  0.0136 -0.2778 -0.1771
 5771SOL     OW22271   0.444   3.828   3.368  0.1595  0.0423  0.2832
 5771SOL    HW122272   0.430   3.785   3.452  3.0617 -2.0414 -0.2077
 5771SOL    HW222273   0.450   3.756   3.305 -1.0918  1.5242 -1.6023
 5771SOL     MW22274   0.443   3.813   3.371  0.3708 -0.0348 -0.0210
 5772SOL     OW22275   3.428   3.656   0.821 -0.1849  0.2943 -0.1451
 5772SOL    HW122276   3.353   3.665   0.880 -0.4545  2.1113 -0.7421
 5772SOL    HW222277   3.422   3.566   0.788 -0.3429 -0.5564  2.1556
 5772SOL     MW22278   3.418   3.646   0.824 -0.2394  0.4182  0.0730
 5773SOL     OW22279   0.654   2.601   4.056  0.4117  0.9460  0.1487
 5773SOL    HW122280   0.673   2.507   4.058 -0.3507  0.8169  1.2828
 5773SOL    HW222281   0.564   2.609   4.085  0.5308  2.0515  0.2495
 5773SOL     MW22282   0.645   2.590   4.060  0.3294  1.0705  0.3071
 5774SOL     OW22283   4.093   2.262   4.385 -0.0725  0.1940 -0.2267
 5774SOL    HW122284   4.025   2.214   4.431  0.5310  0.5882  1.0821
 5774SOL    HW222285   4.163   2.198   4.372  0.5901  0.6187  1.2115
 5774SOL     MW22286   4.093   2.247   4.389  0.0901  0.2990  0.1245
 5775SOL     OW22287   2.193   2.218   5.269 -0.0795 -0.1847  0.4486
 5775SOL    HW122288   2.125   2.214   5.335  1.3905 -2.2382  1.9119
 5775SOL    HW222289   2.269   2.256   5.314 -0.4707  2.9233 -1.3897
 5775SOL     MW22290   2.194   2.222   5.283  0.0584 -0.0498  0.4005
 5776SOL     OW22291   5.017   3.126   2.500  0.6063  0.6310 -0.1552
 5776SOL    HW122292   5.011   3.164   2.588  0.1411  0.6636 -0.2018
 5776SOL    HW222293   4.980   3.038   2.510 -1.5605  1.4521 -0.8231
 5776SOL     MW22294   5.012   3.119   2.513  0.2694  0.7403 -0.2465
 5777SOL     OW22295   4.257   3.255   0.765 -0.3314  0.8770 -0.0833
 5777SOL    HW122296   4.258   3.349   0.747 -0.7105  0.9373  0.2094
 5777SOL    HW222297   4.348   3.228   0.754 -0.0761  1.4303  0.6345
 5777SOL     MW22298   4.268   3.264   0.761 -0.3471  0.9556  0.0461
 5778SOL     OW22299   1.219   5.745   4.887  0.0322  0.0995 -0.0883
 5778SOL    HW122300   1.301   5.755   4.839 -0.8534 -0.4929 -1.7482
 5778SOL    HW222301   1.156   5.800   4.839 -0.6233  0.3517  1.0201
 5778SOL     MW22302   1.221   5.754   4.875 -0.1651  0.0563 -0.1588
 5779SOL     OW22303   4.589   1.298   3.034 -0.0379  0.4523 -0.2645
 5779SOL    HW122304   4.542   1.216   3.020 -0.4368  0.6816 -0.2916
 5779SOL    HW222305   4.542   1.362   2.981 -0.0445  0.8054  0.1586
 5779SOL     MW22306   4.577   1.296   3.026 -0.0896  0.5269 -0.2136
 5780SOL     OW22307   0.533   0.818   5.377 -0.0238 -0.1313  0.5743
 5780SOL    HW122308   0.521   0.866   5.459 -1.9530  0.8162 -0.2243
 5780SOL    HW222309   0.481   0.867   5.313  1.0932 -1.1062 -1.1282
 5780SOL     MW22310   0.525   0.830   5.379 -0.1277 -0.1348  0.2542
 5781SOL     OW22311   1.240   2.401   4.512  0.3065  0.2672 -0.5485
 5781SOL    HW122312   1.223   2.494   4.528 -1.1532 -0.2316  0.9262
 5781SOL    HW222313   1.165   2.356   4.549  0.3603 -1.4508 -2.4236
 5781SOL     MW22314   1.228   2.407   4.519  0.1266 -0.0165 -0.5994
 5782SOL     OW22315   4.258   5.924   2.486 -0.2324 -0.7265 -0.4188
 5782SOL    HW122316   4.261   5.995   2.550  0.0134 -0.8922 -0.2475
 5782SOL    HW222317   4.166   5.896   2.486 -0.0982 -1.1960  0.3789
 5782SOL     MW22318   4.246   5.929   2.494 -0.1841 -0.8078 -0.2947
 5783SOL     OW22319   4.347   3.335   5.108  0.3968  0.4921  0.3836
 5783SOL    HW122320   4.259   3.374   5.105  0.2367  0.2397  1.3829
 5783SOL    HW222321   4.332   3.241   5.098  0.2585  0.1344  3.3586
 5783SOL     MW22322   4.334   3.328   5.106  0.3586  0.4137  0.8922
 5784SOL     OW22323   1.878   0.004   4.255  0.1290 -0.7727  0.4692
 5784SOL    HW122324   1.935   0.078   4.280 -2.0990  0.7422  1.1693
 5784SOL    HW222325   1.935  -0.073   4.264  2.2973  0.7558  0.4335
 5784SOL     MW22326   1.893   0.004   4.259  0.1212 -0.3831  0.5546
 5785SOL     OW22327   1.060   5.493   1.790  0.3505 -0.9511  0.2502
 5785SOL    HW122328   1.073   5.587   1.804  1.4725 -1.1108  0.3177
 5785SOL    HW222329   0.982   5.472   1.841  0.0854 -0.0566  0.2258
 5785SOL     MW22330   1.052   5.503   1.798  0.4603 -0.8574  0.2557
 5786SOL     OW22331   5.082   2.885   1.701  0.2186  0.3218 -0.8438
 5786SOL    HW122332   5.027   2.897   1.778 -0.1671  0.1886 -1.0967
 5786SOL    HW222333   5.140   2.961   1.700  0.4978  0.1210 -0.1942
 5786SOL     MW22334   5.083   2.896   1.711  0.2050  0.2789 -0.7929
 5787SOL     OW22335   5.718   1.389   3.538 -0.0855  0.0187  0.5835
 5787SOL    HW122336   5.690   1.383   3.446 -1.7501  2.0543  0.9141
 5787SOL    HW222337   5.712   1.299   3.570  2.2135 -1.0247 -1.7552
 5787SOL     MW22338   5.713   1.377   3.530 -0.0043  0.1458  0.3264
 5788SOL     OW22339   0.387   5.851   2.316 -0.2364  0.4550 -0.3606
 5788SOL    HW122340   0.347   5.769   2.286 -0.7756  0.3512  0.6073
 5788SOL    HW222341   0.476   5.849   2.280 -0.8434  0.3251 -1.8855
 5788SOL     MW22342   0.393   5.840   2.308 -0.3831  0.4253 -0.4320
 5789SOL     OW22343   0.764   1.879   3.140  0.4340  0.3339  0.0655
 5789SOL    HW122344   0.837   1.839   3.188  1.8015  1.6196 -0.9215
 5789SOL    HW222345   0.791   1.970   3.127 -0.3755  0.2819 -2.2045
 5789SOL     MW22346   0.777   1.885   3.145  0.5053  0.4919 -0.3517
 5790SOL     OW22347   5.414   5.366   4.422  0.5739  0.1876  0.4640
 5790SOL    HW122348   5.449   5.284   4.386  2.7707  0.5722  1.6756
 5790SOL    HW222349   5.457   5.435   4.371 -0.6702  0.6229 -0.0168
 5790SOL     MW22350   5.424   5.364   4.410  0.6962  0.2923  0.5579
 5791SOL     OW22351   0.617   2.293   1.689  0.2656  0.2314 -0.0463
 5791SOL    HW122352   0.696   2.333   1.652  0.5674 -0.7401 -0.4726
 5791SOL    HW222353   0.564   2.268   1.613  1.4772 -2.9745  0.0573
 5791SOL     MW22354   0.620   2.295   1.675  0.4593 -0.3033 -0.0875
 5792SOL     OW22355   0.082   1.751   0.323 -0.7802  0.1615 -0.1475
 5792SOL    HW122356   0.025   1.779   0.252 -2.9149 -1.4317  0.8842
 5792SOL    HW222357   0.070   1.817   0.391 -0.7364  0.2884 -0.2626
 5792SOL     MW22358   0.073   1.763   0.323 -1.0479 -0.0263 -0.0302
 5793SOL     OW22359   3.096   3.965   2.833  0.2892 -0.2333 -0.4352
 5793SOL    HW122360   3.117   3.884   2.880  0.4890  0.1377  0.1241
 5793SOL    HW222361   3.157   3.966   2.760  2.0349  0.6590  0.9789
 5793SOL     MW22362   3.107   3.955   2.830  0.5383 -0.0715 -0.1829
 5794SOL     OW22363   4.521   0.917   3.109  0.7461 -0.3519 -0.5416
 5794SOL    HW122364   4.452   0.982   3.126  0.9163 -0.3987  0.3598
 5794SOL    HW222365   4.566   0.949   3.032 -0.2400 -0.2720 -1.0969
 5794SOL     MW22366   4.518   0.930   3.101  0.6418 -0.3476 -0.4971
 5795SOL     OW22367   4.880   0.427   5.598 -0.1561  0.0185  0.1591
 5795SOL    HW122368   4.881   0.458   5.689  0.6528  2.5337 -0.6590
 5795SOL    HW222369   4.954   0.366   5.593  0.3748  0.5742  0.9645
 5795SOL     MW22370   4.890   0.423   5.609  0.0148  0.4116  0.1574
 5796SOL     OW22371   1.693   1.784   1.455  0.1575  0.2461 -0.9330
 5796SOL    HW122372   1.702   1.783   1.359  1.5683 -0.2694 -0.8118
 5796SOL    HW222373   1.766   1.731   1.486  0.5538  1.6145  0.5129
 5796SOL     MW22374   1.703   1.777   1.446  0.3887  0.3552 -0.7324
 5797SOL     OW22375   4.629   0.388   5.495 -0.4450 -0.0424 -0.0514
 5797SOL    HW122376   4.711   0.391   5.544 -0.3991 -2.8127  0.1032
 5797SOL    HW222377   4.561   0.387   5.562 -0.4561 -1.7012 -0.0775
 5797SOL     MW22378   4.631   0.388   5.509 -0.4406 -0.6094 -0.0353
 5798SOL     OW22379   1.207   1.809   3.316 -0.1737 -0.0327 -0.0223
 5798SOL    HW122380   1.251   1.796   3.232 -1.0000 -0.1609 -0.4398
 5798SOL    HW222381   1.238   1.737   3.371  0.1091 -0.1419 -0.3241
 5798SOL     MW22382   1.216   1.798   3.313 -0.2434 -0.0631 -0.1142
 5799SOL     OW22383   1.799   1.603   5.790 -0.5376 -0.4285  0.7821
 5799SOL    HW122384   1.733   1.662   5.825 -0.0393  0.5188  0.1645
 5799SOL    HW222385   1.863   1.593   5.861  0.2438  1.1313  0.3132
 5799SOL     MW22386   1.799   1.609   5.804 -0.3738 -0.1075  0.6433
 5800SOL     OW22387   5.185   3.485   3.604  0.1529 -0.3586 -0.0673
 5800SOL    HW122388   5.279   3.476   3.624  0.2022 -0.5196 -0.3737
 5800SOL    HW222389   5.156   3.395   3.587  0.0047 -0.2738 -0.2576
 5800SOL     MW22390   5.193   3.472   3.605  0.1397 -0.3684 -0.1309
 5801SOL     OW22391   2.350   1.703   3.033  0.4380 -0.0581  0.1496
 5801SOL    HW122392   2.270   1.740   3.071 -0.3946 -2.0221  0.3896
 5801SOL    HW222393   2.420   1.729   3.092 -0.3152  0.0393  1.0009
 5801SOL     MW22394   2.348   1.711   3.045  0.2348 -0.2970  0.2894
 5802SOL     OW22395   5.292   0.341   4.819  0.0685  0.7245  0.3955
 5802SOL    HW122396   5.212   0.313   4.774  0.7088 -0.2510 -0.1663
 5802SOL    HW222397   5.261   0.396   4.891 -1.1778 -0.4685  0.7971
 5802SOL     MW22398   5.278   0.344   4.823 -0.0086  0.4469  0.3748
 5803SOL     OW22399   2.251   4.103   5.267 -0.5443  0.5521 -0.0379
 5803SOL    HW122400   2.227   4.165   5.336  0.1794 -0.7543  1.4142
 5803SOL    HW222401   2.335   4.137   5.234  0.4118 -0.2654  1.5250
 5803SOL     MW22402   2.259   4.116   5.272 -0.3295  0.2804  0.3481
 5804SOL     OW22403   0.513   5.273   0.339 -0.6620  0.1244  0.1088
 5804SOL    HW122404   0.564   5.247   0.416  2.3765  0.9470 -1.5628
 5804SOL    HW222405   0.491   5.365   0.354  0.8404  0.5879 -0.4606
 5804SOL     MW22406   0.517   5.281   0.351 -0.0807  0.2890 -0.1781
 5805SOL     OW22407   4.612   0.591   1.825  0.0867  0.3226  0.0260
 5805SOL    HW122408   4.561   0.594   1.744 -1.2430 -1.6062  0.7621
 5805SOL    HW222409   4.670   0.667   1.820 -0.7213  0.8101 -2.2423
 5805SOL     MW22410   4.613   0.601   1.814 -0.1869  0.1380 -0.1702
 5806SOL     OW22411   3.371   0.532   4.910 -0.1222  0.0168  0.0648
 5806SOL    HW122412   3.430   0.517   4.836 -0.5734 -1.4657 -0.0079
 5806SOL    HW222413   3.318   0.453   4.915 -1.7846  1.1258  0.4430
 5806SOL     MW22414   3.372   0.520   4.901 -0.3929 -0.0310  0.1040
 5807SOL     OW22415   2.607   1.966   0.955 -0.0951  0.1712  0.5182
 5807SOL    HW122416   2.568   2.051   0.933  0.4822  0.4198  0.4641
 5807SOL    HW222417   2.628   1.973   1.048  2.0036  0.8950  0.0103
 5807SOL     MW22418   2.604   1.978   0.964  0.2475  0.2956  0.4463
 5808SOL     OW22419   5.033   2.872   4.408  0.1920 -0.4557 -0.1247
 5808SOL    HW122420   5.010   2.962   4.385 -0.6323 -0.0485  2.1454
 5808SOL    HW222421   4.948   2.829   4.421  0.5990 -1.3838 -0.5101
 5808SOL     MW22422   5.019   2.878   4.407  0.1392 -0.5226  0.1168
 5809SOL     OW22423   1.888   5.201   0.249 -0.2804  0.3931 -0.9043
 5809SOL    HW122424   1.874   5.277   0.192 -0.1103  1.4265  0.3989
 5809SOL    HW222425   1.822   5.210   0.318 -0.8202 -1.1189 -1.2087
 5809SOL     MW22426   1.878   5.212   0.251 -0.3278  0.3319 -0.7764
 5810SOL     OW22427   0.645   3.021   5.336 -0.4868  0.0891 -1.2860
 5810SOL    HW122428   0.639   2.937   5.381 -0.4441 -0.4427 -2.2804
 5810SOL    HW222429   0.638   3.000   5.243  1.8459  0.9593 -1.6802
 5810SOL     MW22430   0.643   3.008   5.330 -0.1827  0.1323 -1.4639
 5811SOL     OW22431   1.647   4.120   3.032 -0.5404  0.1802  0.3791
 5811SOL    HW122432   1.676   4.192   3.088 -1.2920  0.4579  0.4222
 5811SOL    HW222433   1.627   4.049   3.093 -2.4651  0.8630  0.5771
 5811SOL     MW22434   1.648   4.120   3.047 -0.8830  0.3033  0.4101
 5812SOL     OW22435   3.051   2.009   0.010 -0.4276  0.4035  0.0340
 5812SOL    HW122436   3.067   1.961   0.091 -0.6568 -2.2830 -1.4784
 5812SOL    HW222437   3.082   2.098   0.029 -1.0019 -0.0107  3.2386
 5812SOL     MW22438   3.057   2.014   0.023 -0.5305  0.0064  0.2506
 5813SOL     OW22439   0.027   5.686   0.114  1.0754  0.1799 -0.0771
 5813SOL    HW122440   0.058   5.755   0.057  2.4138  0.2839  0.7501
 5813SOL    HW222441   0.046   5.605   0.066  1.0750  0.3174 -0.3093
 5813SOL     MW22442   0.033   5.684   0.101  1.2467  0.2108 -0.0010
 5814SOL     OW22443   2.274   3.843   5.451  0.5919 -0.2188  0.4720
 5814SOL    HW122444   2.264   3.926   5.404  2.2229  0.3484  1.0818
 5814SOL    HW222445   2.293   3.779   5.382  0.4545  0.1340  0.1028
 5814SOL     MW22446   2.276   3.846   5.436  0.7832 -0.1011  0.5026
 5815SOL     OW22447   5.590   3.924   2.076 -0.0433  0.4374 -0.2528
 5815SOL    HW122448   5.659   3.858   2.074 -0.2432  0.1844  0.7039
 5815SOL    HW222449   5.509   3.875   2.059 -0.2679  0.3075  1.0808
 5815SOL     MW22450   5.588   3.909   2.074 -0.0978  0.3884  0.0405
 5816SOL     OW22451   1.133   5.478   3.754 -0.1081  0.0830 -0.1639
 5816SOL    HW122452   1.166   5.559   3.715 -0.2887  0.9641  1.4843
 5816SOL    HW222453   1.161   5.482   3.845 -3.3698  0.1227  0.8877
 5816SOL     MW22454   1.141   5.489   3.761 -0.5487  0.2007  0.1817
 5817SOL     OW22455   1.785   4.658   3.582 -0.5067 -0.2998  0.1712
 5817SOL    HW122456   1.870   4.641   3.623  0.9038  0.8672 -2.1731
 5817SOL    HW222457   1.730   4.585   3.611  1.8619 -2.1483  0.2118
 5817SOL     MW22458   1.789   4.646   3.591 -0.0230 -0.3872 -0.1237
 5818SOL     OW22459   2.246   2.374   0.247 -0.4440 -0.3984 -0.1759
 5818SOL    HW122460   2.247   2.455   0.196  0.5075 -0.1228  0.2744
 5818SOL    HW222461   2.331   2.333   0.229 -0.6333 -0.9448  0.1552
 5818SOL     MW22462   2.257   2.379   0.238 -0.3464 -0.4332 -0.0759
 5819SOL     OW22463   5.585   0.157   2.460 -0.1992 -0.2742  0.2712
 5819SOL    HW122464   5.521   0.179   2.393  1.3703 -0.7541 -1.4421
 5819SOL    HW222465   5.551   0.077   2.501  0.0201 -1.3815 -1.6377
 5819SOL     MW22466   5.573   0.149   2.457  0.0296 -0.4774 -0.1926
 5820SOL     OW22467   2.254   5.049   5.120  0.3258  0.0877 -0.3411
 5820SOL    HW122468   2.241   5.138   5.152 -0.4568 -0.4879  0.9669
 5820SOL    HW222469   2.166   5.018   5.097  0.4533 -0.7063  0.1971
 5820SOL     MW22470   2.241   5.056   5.121  0.2420 -0.0873 -0.1040
 5821SOL     OW22471   5.225   4.099   4.639  0.8726 -0.6126 -0.2051
 5821SOL    HW122472   5.145   4.151   4.637  1.3693  0.1306 -0.5639
 5821SOL    HW222473   5.199   4.015   4.600  0.1712 -0.5173  0.0430
 5821SOL     MW22474   5.212   4.095   4.634  0.8464 -0.5054 -0.2189
 5822SOL     OW22475   5.254   1.194   2.541  0.2987  0.4773  0.0245
 5822SOL    HW122476   5.336   1.241   2.531  0.2131  0.3982 -1.2172
 5822SOL    HW222477   5.203   1.246   2.603  0.5491  1.5665 -0.6574
 5822SOL     MW22478   5.258   1.207   2.547  0.3195  0.6065 -0.2217
 5823SOL     OW22479   0.275   2.983   5.376  0.2164 -0.5816 -0.4253
 5823SOL    HW122480   0.288   2.970   5.282  0.5548 -0.3753 -0.4065
 5823SOL    HW222481   0.338   2.924   5.418  1.5168  0.8391 -0.3416
 5823SOL     MW22482   0.285   2.974   5.369  0.4262 -0.3734 -0.4115
 5824SOL     OW22483   4.573   5.411   1.941  0.2727  0.3271  0.0990
 5824SOL    HW122484   4.532   5.464   1.873  1.4182  0.2976 -0.6213
 5824SOL    HW222485   4.608   5.335   1.895 -0.2475 -0.4374  0.9456
 5824SOL     MW22486   4.572   5.408   1.927  0.3519  0.2251  0.1152
 5825SOL     OW22487   5.572   4.204   2.035  0.0516 -0.0443  0.2887
 5825SOL    HW122488   5.575   4.111   2.057 -0.9138 -0.1896 -0.1880
 5825SOL    HW222489   5.656   4.238   2.064  0.6031 -1.1639  0.0135
 5825SOL     MW22490   5.583   4.196   2.042 -0.0014 -0.2065  0.1924
 5826SOL     OW22491   4.221   2.484   2.466 -0.2957  0.3686  0.0455
 5826SOL    HW122492   4.279   2.449   2.398 -3.0287 -3.8686 -0.2580
 5826SOL    HW222493   4.157   2.536   2.418 -0.4949 -0.2002 -0.3052
 5826SOL     MW22494   4.221   2.486   2.451 -0.6714 -0.2465 -0.0381
 5827SOL     OW22495   4.738   2.135   2.086 -0.3010 -0.7451 -0.3225
 5827SOL    HW122496   4.832   2.143   2.072 -0.5073 -0.4020 -1.5864
 5827SOL    HW222497   4.721   2.192   2.161 -0.1505  2.9005 -2.8811
 5827SOL     MW22498   4.748   2.143   2.094 -0.3085 -0.2346 -0.8116
 5828SOL     OW22499   5.273   3.350   0.772 -0.0645  0.2865 -0.3497
 5828SOL    HW122500   5.331   3.350   0.848  2.0622  0.0921 -1.9601
 5828SOL    HW222501   5.232   3.264   0.773  0.3646  0.0872  0.2461
 5828SOL     MW22502   5.275   3.339   0.782  0.2627  0.2360 -0.4796
 5829SOL     OW22503   1.641   5.451   0.105 -0.5847  0.2505 -0.1564
 5829SOL    HW122504   1.723   5.416   0.070 -0.5680  1.1315 -1.0437
 5829SOL    HW222505   1.604   5.380   0.157  0.3830 -0.4047 -0.3545
 5829SOL     MW22506   1.646   5.438   0.107 -0.4586  0.2794 -0.2953
 5830SOL     OW22507   4.779   2.770   4.389  0.2225  0.6413 -0.6382
 5830SOL    HW122508   4.735   2.794   4.308  2.3042  0.5573 -1.8424
 5830SOL    HW222509   4.763   2.677   4.399 -0.3744  0.7314 -0.7414
 5830SOL     MW22510   4.772   2.761   4.380  0.4120  0.6421 -0.8054
 5831SOL     OW22511   5.829   3.530   4.685 -0.0782  0.4860  0.2311
 5831SOL    HW122512   5.780   3.562   4.761 -0.1941 -0.4186  0.5459
 5831SOL    HW222513   5.800   3.440   4.674  0.0296  0.5729 -0.8271
 5831SOL     MW22514   5.819   3.523   4.694 -0.0792  0.3812  0.1364
 5832SOL     OW22515   1.320   4.487   3.736 -0.0358  0.0414 -0.2406
 5832SOL    HW122516   1.347   4.573   3.704 -0.7589  0.8977  1.3764
 5832SOL    HW222517   1.336   4.428   3.663 -1.6542  1.9299 -2.1903
 5832SOL     MW22518   1.326   4.490   3.723 -0.3356  0.3929 -0.2832
 5833SOL     OW22519   4.622   4.902   4.506 -0.4562  0.8013  0.4424
 5833SOL    HW122520   4.610   4.996   4.491 -1.5567  0.6474  0.3210
 5833SOL    HW222521   4.564   4.859   4.443  1.2545 -0.0021 -0.6020
 5833SOL     MW22522   4.613   4.908   4.496 -0.3777  0.6785  0.2933
 5834SOL     OW22523   0.166   5.412   0.538  0.0977 -0.1837 -0.1089
 5834SOL    HW122524   0.140   5.478   0.603 -0.6127  0.1445 -0.7202
 5834SOL    HW222525   0.180   5.463   0.458  0.8555 -0.6040 -0.2450
 5834SOL     MW22526   0.165   5.427   0.536  0.1038 -0.1955 -0.2045
 5835SOL     OW22527   3.387   4.675   0.134 -0.3513  0.4328  0.1752
 5835SOL    HW122528   3.395   4.769   0.153 -0.0277  0.4435 -0.0154
 5835SOL    HW222529   3.447   4.633   0.196 -1.5928  0.2388  1.2722
 5835SOL     MW22530   3.396   4.682   0.144 -0.4685  0.4096  0.2912
 5836SOL     OW22531   0.495   3.658   3.152 -0.0418  0.6271 -0.3411
 5836SOL    HW122532   0.430   3.712   3.107  0.8740  1.3600 -0.8024
 5836SOL    HW222533   0.537   3.608   3.082 -0.2006  0.0377 -0.0256
 5836SOL     MW22534   0.492   3.658   3.137  0.0551  0.6454 -0.3600
 5837SOL     OW22535   0.802   4.055   5.706  0.0938  0.3173  0.0312
 5837SOL    HW122536   0.877   4.005   5.740  1.3069  0.3276 -2.5318
 5837SOL    HW222537   0.731   3.992   5.704  0.0674  0.2266  2.2159
 5837SOL     MW22538   0.803   4.040   5.710  0.2458  0.3071 -0.0176
 5838SOL     OW22539   1.526   4.455   4.993  0.1157 -0.6645  0.1766
 5838SOL    HW122540   1.465   4.430   4.923 -1.3246 -1.4319  1.6734
 5838SOL    HW222541   1.581   4.522   4.954 -0.9209 -0.8106 -1.5813
 5838SOL     MW22542   1.525   4.460   4.979 -0.2015 -0.7815  0.1431
 5839SOL     OW22543   0.536   1.043   3.685 -0.0409  0.0284 -0.3760
 5839SOL    HW122544   0.567   1.132   3.699 -1.5465  0.5253 -0.1479
 5839SOL    HW222545   0.468   1.051   3.618  0.2600 -1.0376 -0.8215
 5839SOL     MW22546   0.532   1.055   3.678 -0.1951 -0.0445 -0.4036
 5840SOL     OW22547   1.914   1.214   4.422  0.4634 -0.0923  0.3737
 5840SOL    HW122548   1.842   1.220   4.360  1.5451  0.5961 -0.8197
 5840SOL    HW222549   1.939   1.304   4.440  0.9751 -0.3264  0.8726
 5840SOL     MW22550   1.908   1.226   4.417  0.6675 -0.0342  0.2851
 5841SOL     OW22551   1.646   5.793   0.535  0.1139 -0.0503  0.2795
 5841SOL    HW122552   1.579   5.828   0.477  0.9993 -1.0095 -1.3488
 5841SOL    HW222553   1.729   5.820   0.495  0.7208  0.8193  2.0697
 5841SOL     MW22554   1.648   5.801   0.522  0.3049 -0.0620  0.3002
 5842SOL     OW22555   1.064   5.188   1.693 -0.3609 -0.4482  0.4200
 5842SOL    HW122556   1.089   5.280   1.695  0.2044 -0.6155  1.3785
 5842SOL    HW222557   0.993   5.181   1.757  0.1172 -0.8177  0.9190
 5842SOL     MW22558   1.058   5.199   1.702 -0.2275 -0.5174  0.6067
 5843SOL     OW22559   2.931   0.893   4.125  0.1583 -0.3109 -0.2910
 5843SOL    HW122560   2.890   0.819   4.169  0.8706 -0.4599  0.1443
 5843SOL    HW222561   3.012   0.908   4.174  0.3257  0.3594 -0.7551
 5843SOL     MW22562   2.937   0.885   4.137  0.2708 -0.2441 -0.2952
 5844SOL     OW22563   0.135   3.045   1.518 -0.4073 -0.3744 -0.2650
 5844SOL    HW122564   0.132   3.098   1.439 -0.2903 -1.7764 -1.2275
 5844SOL    HW222565   0.073   2.974   1.502 -0.5040 -0.5763  0.9641
 5844SOL     MW22566   0.127   3.043   1.506 -0.4047 -0.5796 -0.2309
 5845SOL     OW22567   5.735   2.715   3.214  0.1360 -0.0048  0.2490
 5845SOL    HW122568   5.650   2.713   3.172  0.0856 -1.8329  0.3850
 5845SOL    HW222569   5.744   2.804   3.248 -1.2299  0.5108 -0.7285
 5845SOL     MW22570   5.726   2.726   3.213 -0.0453 -0.1726  0.1414
 5846SOL     OW22571   5.447   0.476   2.715  0.0840  0.4139 -0.4935
 5846SOL    HW122572   5.437   0.464   2.620  0.5225 -0.2548 -0.4556
 5846SOL    HW222573   5.375   0.534   2.739  0.1114  0.7879 -1.2808
 5846SOL     MW22574   5.437   0.482   2.706  0.1445  0.3761 -0.5896
 5847SOL     OW22575   3.156   2.266   1.566 -0.0121 -0.1999 -0.2236
 5847SOL    HW122576   3.226   2.283   1.628 -0.4681 -0.0741  0.2660
 5847SOL    HW222577   3.079   2.249   1.621 -0.5547  0.4932 -0.7567
 5847SOL     MW22578   3.155   2.266   1.581 -0.1400 -0.0949 -0.2291
 5848SOL     OW22579   1.758   4.061   4.072  0.0310 -0.0316 -0.1111
 5848SOL    HW122580   1.768   3.980   4.021 -0.4665  0.3967 -0.9076
 5848SOL    HW222581   1.798   4.128   4.016  1.0251  0.1719  0.8307
 5848SOL     MW22582   1.765   4.059   4.058  0.0945  0.0491 -0.0925
 5849SOL     OW22583   5.730   4.589   2.097 -0.9969 -0.8100  0.3679
 5849SOL    HW122584   5.640   4.556   2.106 -0.8129 -0.8475  2.3911
 5849SOL    HW222585   5.734   4.663   2.158 -0.4180  0.9038 -1.6809
 5849SOL     MW22586   5.719   4.595   2.106 -0.8984 -0.5956  0.3645
 5850SOL     OW22587   5.795   1.373   2.448 -0.3834 -0.1609 -0.4747
 5850SOL    HW122588   5.854   1.350   2.521 -0.6199 -0.1767 -0.2897
 5850SOL    HW222589   5.779   1.466   2.459  2.2352  0.5655 -2.4191
 5850SOL     MW22590   5.801   1.382   2.459 -0.0787 -0.0700 -0.7000
 5851SOL     OW22591   4.885   3.083   4.818  0.1238  0.2511 -0.4624
 5851SOL    HW122592   4.854   2.993   4.823 -1.6292  0.9412  2.2106
 5851SOL    HW222593   4.808   3.137   4.838  0.9986  2.3784 -2.6123
 5851SOL     MW22594   4.872   3.079   4.821  0.0119  0.6115 -0.3953
 5852SOL     OW22595   1.157   2.845   1.887 -0.5737  0.4604  0.7968
 5852SOL    HW122596   1.095   2.834   1.815  0.0689 -0.5063  0.3834
 5852SOL    HW222597   1.130   2.926   1.930 -1.3053  0.7448 -0.1931
 5852SOL     MW22598   1.146   2.854   1.883 -0.5852  0.3731  0.6171
 5853SOL     OW22599   2.220   2.027   5.576  0.5207 -0.3784 -0.3126
 5853SOL    HW122600   2.175   2.083   5.512 -0.7261 -0.7456  0.2224
 5853SOL    HW222601   2.305   2.008   5.536 -0.6042 -1.3950 -2.3245
 5853SOL     MW22602   2.225   2.032   5.562  0.2170 -0.5555 -0.5012
 5854SOL     OW22603   1.545   0.803   5.172  0.4434 -0.1808  0.1210
 5854SOL    HW122604   1.595   0.746   5.113  0.1928 -0.2701 -0.0046
 5854SOL    HW222605   1.535   0.884   5.123  0.2149 -0.2631  0.0315
 5854SOL     MW22606   1.550   0.806   5.158  0.3819 -0.2028  0.0935
 5855SOL     OW22607   1.872   5.531   1.992 -0.3420  0.3126  0.2039
 5855SOL    HW122608   1.951   5.547   1.942 -1.1685 -2.6315 -2.1559
 5855SOL    HW222609   1.903   5.496   2.076  0.8761  0.5651 -0.1328
 5855SOL     MW22610   1.886   5.529   1.996 -0.2918 -0.0319 -0.1414
 5856SOL     OW22611   3.125   0.830   5.441  0.0335  0.5644  0.3267
 5856SOL    HW122612   3.154   0.786   5.361  1.2234 -0.2824  1.1887
 5856SOL    HW222613   3.077   0.907   5.411 -0.0903 -0.0909 -1.1985
 5856SOL     MW22614   3.123   0.834   5.427  0.1700  0.3721  0.2418
 5857SOL     OW22615   0.575   0.464   4.927  0.2836 -0.6577 -0.0648
 5857SOL    HW122616   0.529   0.405   4.868  1.0741 -2.3911  1.0003
 5857SOL    HW222617   0.660   0.479   4.885  0.1461 -0.4534 -0.2604
 5857SOL     MW22618   0.580   0.458   4.914  0.3672 -0.8534  0.0467
 5858SOL     OW22619   4.336   4.423   0.391 -0.0172  0.7473  0.0782
 5858SOL    HW122620   4.406   4.439   0.327 -0.3005 -0.0173 -0.4347
 5858SOL    HW222621   4.369   4.352   0.445  0.1054  1.2124  0.6202
 5858SOL     MW22622   4.349   4.416   0.389 -0.0381  0.7095  0.0819
 5859SOL     OW22623   1.853   1.414   0.965  0.1652 -0.0465 -0.1618
 5859SOL    HW122624   1.772   1.409   0.915  0.1279  0.5556 -0.1752
 5859SOL    HW222625   1.915   1.358   0.918 -1.2051 -3.2974  1.7629
 5859SOL     MW22626   1.851   1.406   0.952 -0.0149 -0.3855  0.0829
 5860SOL     OW22627   2.133   1.291   5.762 -0.2052 -0.1696 -0.2624
 5860SOL    HW122628   2.159   1.235   5.835 -1.5606 -1.4147 -0.6994
 5860SOL    HW222629   2.143   1.236   5.684 -0.0146  0.7217 -0.8843
 5860SOL     MW22630   2.138   1.277   5.761 -0.3545 -0.2149 -0.3977
 5861SOL     OW22631   4.325   2.301   5.194 -0.5973  0.9415 -0.2850
 5861SOL    HW122632   4.254   2.352   5.155 -1.0189  0.5741  0.0113
 5861SOL    HW222633   4.377   2.272   5.118  0.2899  2.7443 -0.3914
 5861SOL     MW22634   4.323   2.304   5.179 -0.5379  1.1253 -0.2608
 5862SOL     OW22635   5.900   4.864   3.178  0.5303  0.5651  0.6438
 5862SOL    HW122636   5.964   4.847   3.247  0.1185  0.6906  1.0589
 5862SOL    HW222637   5.893   4.781   3.130  2.5431  1.1428 -0.7000
 5862SOL     MW22638   5.907   4.851   3.181  0.7353  0.6552  0.5250
 5863SOL     OW22639   3.857   1.641   0.367  0.0499  0.3571 -0.4830
 5863SOL    HW122640   3.793   1.692   0.317 -0.0486  0.6045 -0.1043
 5863SOL    HW222641   3.806   1.605   0.440 -0.0136 -0.7472 -1.0567
 5863SOL     MW22642   3.842   1.643   0.370  0.0293  0.2474 -0.5079
 5864SOL     OW22643   0.876   4.065   4.219 -0.0666  0.3265 -0.5836
 5864SOL    HW122644   0.797   4.094   4.173 -0.7168 -0.5438 -0.0416
 5864SOL    HW222645   0.939   4.135   4.206 -1.0585  1.2036 -0.7162
 5864SOL     MW22646   0.874   4.078   4.212 -0.2767  0.3276 -0.5312
 5865SOL     OW22647   2.364   1.198   5.008 -0.5838 -0.5008  1.0299
 5865SOL    HW122648   2.282   1.231   4.972 -0.2483 -1.6283 -0.8398
 5865SOL    HW222649   2.347   1.105   5.025  0.2873 -0.7383  0.6474
 5865SOL     MW22650   2.352   1.190   5.005 -0.4294 -0.6757  0.7415
 5866SOL     OW22651   1.615   3.397   0.797  0.1005 -0.2196 -0.1234
 5866SOL    HW122652   1.657   3.405   0.882 -0.0820 -1.4210  0.0886
 5866SOL    HW222653   1.569   3.313   0.801 -0.4292  0.0125 -1.1746
 5866SOL     MW22654   1.614   3.387   0.809  0.0095 -0.3438 -0.2308
 5867SOL     OW22655   5.495   1.311   2.201  0.1546  0.1492  0.6373
 5867SOL    HW122656   5.481   1.313   2.296  3.7260 -0.7088  1.2515
 5867SOL    HW222657   5.422   1.260   2.167 -0.1368 -1.1755  3.1514
 5867SOL     MW22658   5.484   1.305   2.209  0.5746 -0.1302  1.0378
 5868SOL     OW22659   3.250   2.286   4.351  0.1007 -0.1138 -0.3363
 5868SOL    HW122660   3.285   2.277   4.263 -0.0657 -3.0030 -0.1718
 5868SOL    HW222661   3.206   2.203   4.368 -0.0925  0.4749  2.3752
 5868SOL     MW22662   3.249   2.274   4.342  0.0546 -0.4082  0.0324
 5869SOL     OW22663   0.351   4.265   4.938  0.2012  0.1800  0.6368
 5869SOL    HW122664   0.301   4.345   4.923  0.9035  0.5527  0.3063
 5869SOL    HW222665   0.320   4.205   4.870 -0.7704 -0.0383  1.2677
 5869SOL     MW22666   0.340   4.267   4.927  0.1668  0.1998  0.6747
 5870SOL     OW22667   1.135   5.747   1.015 -0.2745 -0.2017 -0.5239
 5870SOL    HW122668   1.145   5.743   1.110  1.1093  1.6456 -0.5578
 5870SOL    HW222669   1.045   5.776   1.001  0.4228  2.5863  0.3374
 5870SOL     MW22670   1.125   5.750   1.025 -0.0082  0.3910 -0.4181
 5871SOL     OW22671   5.057   1.427   1.776 -0.0301  0.0825  0.1819
 5871SOL    HW122672   5.035   1.416   1.868 -0.9451 -0.5531 -0.1186
 5871SOL    HW222673   5.148   1.397   1.769  0.9536  2.6161  1.3900
 5871SOL     MW22674   5.066   1.422   1.787 -0.0215  0.3254  0.2980
 5872SOL     OW22675   3.168   4.480   2.932  0.0610 -0.6569 -0.0864
 5872SOL    HW122676   3.258   4.503   2.910  0.2850 -0.3302  1.1677
 5872SOL    HW222677   3.169   4.385   2.944  0.4819 -0.5076  1.0733
 5872SOL     MW22678   3.180   4.471   2.930  0.1435 -0.5960  0.2224
 5873SOL     OW22679   0.401   3.030   1.407 -0.3424  0.0537 -0.1632
 5873SOL    HW122680   0.403   3.097   1.475 -1.2241  0.8983 -0.9491
 5873SOL    HW222681   0.403   2.947   1.454 -2.1430  0.6212  0.9542
 5873SOL     MW22682   0.402   3.028   1.422 -0.6857  0.2341 -0.1208
 5874SOL     OW22683   2.015   5.644   1.556 -0.0698  0.1186 -0.3575
 5874SOL    HW122684   1.950   5.575   1.541 -1.3885  1.8980 -3.4339
 5874SOL    HW222685   1.963   5.723   1.571  1.4077  0.8222  1.1112
 5874SOL     MW22686   2.000   5.645   1.556 -0.0494  0.4363 -0.5634
 5875SOL     OW22687   0.240   4.189   5.393 -0.8611  0.1107 -0.1840
 5875SOL    HW122688   0.213   4.275   5.360 -0.3040 -0.6501 -2.8077
 5875SOL    HW222689   0.332   4.200   5.416 -0.6463  0.1126 -1.0081
 5875SOL     MW22690   0.248   4.201   5.391 -0.7623  0.0138 -0.6251
 5876SOL     OW22691   3.456   5.999   4.140  0.3415  0.0316 -0.2450
 5876SOL    HW122692   3.442   5.979   4.233  3.5411 -0.4863  0.1947
 5876SOL    HW222693   3.396   6.070   4.121  0.2702  0.7457  2.5004
 5876SOL     MW22694   3.447   6.005   4.150  0.7420  0.0566  0.1626
 5877SOL     OW22695   5.255   0.866   1.697  1.0283  0.0266  0.7071
 5877SOL    HW122696   5.268   0.944   1.644 -0.0629 -0.7373 -0.7284
 5877SOL    HW222697   5.333   0.813   1.682 -0.0154 -0.9273 -1.4737
 5877SOL     MW22698   5.266   0.869   1.689  0.7553 -0.1933  0.2443
 5878SOL     OW22699   3.443   3.999   5.832 -0.7002 -0.2369  0.5172
 5878SOL    HW122700   3.499   3.952   5.770  1.1848  1.4655  0.8864
 5878SOL    HW222701   3.401   4.067   5.779 -0.9481 -0.3004  0.6330
 5878SOL     MW22702   3.445   4.002   5.817 -0.4904 -0.0272  0.5794
 5879SOL     OW22703   5.783   2.901   3.417 -0.8001 -0.2639 -0.1351
 5879SOL    HW122704   5.876   2.924   3.417 -0.6001 -0.7809 -3.7934
 5879SOL    HW222705   5.741   2.971   3.368 -1.9059 -1.5596 -1.0784
 5879SOL     MW22706   5.790   2.913   3.411 -0.9160 -0.4961 -0.7246
 5880SOL     OW22707   2.081   1.044   1.821  0.5966  0.0843  0.1132
 5880SOL    HW122708   2.028   1.072   1.895  1.1636  0.8354  0.2412
 5880SOL    HW222709   2.164   1.017   1.860  0.1297 -1.6507 -0.0226
 5880SOL     MW22710   2.085   1.044   1.835  0.6094 -0.0415  0.1122
 5881SOL     OW22711   1.175   1.442   0.642 -0.2830  0.6211  0.3606
 5881SOL    HW122712   1.265   1.415   0.660 -0.0898  0.1589 -1.2593
 5881SOL    HW222713   1.122   1.395   0.707  0.4606 -0.4946  0.1690
 5881SOL     MW22714   1.180   1.433   0.652 -0.1632  0.4191  0.1287
 5882SOL     OW22715   4.939   2.289   5.625  0.3070 -0.5950  0.5505
 5882SOL    HW122716   4.947   2.285   5.529 -0.9807  0.8298  0.3666
 5882SOL    HW222717   5.017   2.335   5.654 -0.4421  1.0989 -0.0373
 5882SOL     MW22718   4.950   2.294   5.616  0.0463 -0.1957  0.4516
 5883SOL     OW22719   4.309   1.048   1.843  0.2549 -0.1892  0.5049
 5883SOL    HW122720   4.276   0.958   1.839  1.2429 -0.4997 -1.1610
 5883SOL    HW222721   4.403   1.039   1.833  0.6736  0.8525  3.1178
 5883SOL     MW22722   4.316   1.035   1.841  0.4354 -0.0956  0.6261
 5884SOL     OW22723   5.256   5.157   4.833  0.3139  0.7585 -0.0985
 5884SOL    HW122724   5.346   5.154   4.800  0.3776 -0.4863  0.1537
 5884SOL    HW222725   5.201   5.144   4.756  0.3985  0.0162 -0.0362
 5884SOL     MW22726   5.261   5.155   4.819  0.3328  0.5045 -0.0577
 5885SOL     OW22727   2.684   2.433   3.836 -0.2897  0.3261  0.3247
 5885SOL    HW122728   2.744   2.418   3.763  1.3351  2.6006  1.1255
 5885SOL    HW222729   2.639   2.514   3.813 -0.1393  0.7837  1.5956
 5885SOL     MW22730   2.686   2.442   3.824 -0.0625  0.6757  0.5898
 5886SOL     OW22731   2.792   4.605   4.159 -0.3330 -0.3105 -0.1261
 5886SOL    HW122732   2.766   4.560   4.078 -0.3285 -1.1407  0.3229
 5886SOL    HW222733   2.821   4.691   4.131 -1.0537 -0.3204 -0.9325
 5886SOL     MW22734   2.792   4.610   4.145 -0.4249 -0.4177 -0.1717
 5887SOL     OW22735   0.930   4.520   3.136  0.5730  0.6244 -0.2892
 5887SOL    HW122736   0.915   4.534   3.230  1.7564 -1.9500  0.3402
 5887SOL    HW222737   0.943   4.608   3.100 -0.8820  1.7251  1.7719
 5887SOL     MW22738   0.930   4.533   3.144  0.5382  0.4358  0.0551
 5888SOL     OW22739   4.560   3.342   0.138 -0.4140 -0.1457 -0.0607
 5888SOL    HW122740   4.649   3.310   0.150 -1.6466 -4.1105 -0.4226
 5888SOL    HW222741   4.535   3.311   0.050 -2.1486  0.8160  0.0622
 5888SOL     MW22742   4.568   3.334   0.128 -0.7939 -0.5302 -0.0913
 5889SOL     OW22743   0.640   5.445   1.379 -0.1330 -0.3324 -0.3868
 5889SOL    HW122744   0.621   5.537   1.397 -1.7711 -0.6495 -0.4197
 5889SOL    HW222745   0.660   5.443   1.285  0.6010  0.1010 -0.2400
 5889SOL     MW22746   0.640   5.456   1.369 -0.2487 -0.3171 -0.3723
 5890SOL     OW22747   0.001   0.302   2.426 -0.2501  0.7966 -0.6579
 5890SOL    HW122748  -0.021   0.220   2.381  0.7506 -1.2952  2.4891
 5890SOL    HW222749  -0.082   0.332   2.463 -0.6764  1.4204 -2.0683
 5890SOL     MW22750  -0.012   0.295   2.425 -0.1764  0.6087 -0.4356
 5891SOL     OW22751   3.586   4.210   0.159 -0.2968 -0.4552 -0.4000
 5891SOL    HW122752   3.558   4.126   0.122 -1.3951 -0.3803  0.2285
 5891SOL    HW222753   3.534   4.275   0.112 -0.4655 -0.2304  0.1043
 5891SOL     MW22754   3.576   4.208   0.148 -0.4592 -0.4172 -0.2550
 5892SOL     OW22755   2.518   4.386   1.893  0.4011  0.5730  0.0985
 5892SOL    HW122756   2.439   4.434   1.917  0.4551  0.9599 -0.4993
 5892SOL    HW222757   2.565   4.375   1.976 -1.2031 -1.3610  0.7911
 5892SOL     MW22758   2.514   4.391   1.907  0.2027  0.3748  0.1105
 5893SOL     OW22759   1.426   1.342   0.634  0.2013  0.3803  0.0293
 5893SOL    HW122760   1.431   1.399   0.558 -0.4578  0.0695 -0.2411
 5893SOL    HW222761   1.509   1.358   0.681 -0.1724  1.8719  0.1888
 5893SOL     MW22762   1.437   1.351   0.630  0.0691  0.5314  0.0151
 5894SOL     OW22763   5.955   0.559   1.595  0.4618 -0.3307  0.0431
 5894SOL    HW122764   5.971   0.627   1.660  0.7936 -1.3941  1.0974
 5894SOL    HW222765   5.863   0.571   1.571  0.2867 -0.0201  0.8375
 5894SOL     MW22766   5.945   0.569   1.601  0.4821 -0.4271  0.2797
 5895SOL     OW22767   3.347   1.790   5.794 -0.4974 -0.4613 -0.2020
 5895SOL    HW122768   3.293   1.739   5.735 -1.2136 -1.0630  0.9660
 5895SOL    HW222769   3.298   1.794   5.876  0.4698  0.3773  0.3613
 5895SOL     MW22770   3.334   1.784   5.797 -0.4652 -0.4309  0.0200
 5896SOL     OW22771   2.209   3.935   0.866 -0.0614 -0.4291  0.4919
 5896SOL    HW122772   2.140   3.876   0.898  2.1622 -1.5134  3.5464
 5896SOL    HW222773   2.232   3.988   0.941  0.5804  1.8180 -1.2468
 5896SOL     MW22774   2.203   3.934   0.879  0.3057 -0.2799  0.6603
 5897SOL     OW22775   0.750   4.586   4.771  0.0981 -0.3422 -0.0362
 5897SOL    HW122776   0.685   4.648   4.806 -0.2748 -0.2170 -0.9305
 5897SOL    HW222777   0.802   4.560   4.847  0.5855  1.4624  0.2707
 5897SOL     MW22778   0.748   4.591   4.785  0.1128 -0.0949 -0.1116
 5898SOL     OW22779   5.593   5.471   0.009 -0.3795  0.2284  0.2431
 5898SOL    HW122780   5.512   5.426   0.034 -0.7301  0.8604  0.2558
 5898SOL    HW222781   5.662   5.407   0.027 -0.7763  0.0765  1.2664
 5898SOL     MW22782   5.592   5.457   0.015 -0.4754  0.2904  0.3757
 5899SOL     OW22783   1.899   5.700   0.829  0.2934  0.4307  0.3781
 5899SOL    HW122784   1.825   5.758   0.817 -1.2372 -1.1701  1.7322
 5899SOL    HW222785   1.893   5.672   0.921  1.6247 -0.9633  0.0711
 5899SOL     MW22786   1.889   5.704   0.839  0.2680  0.0477  0.5122
 5900SOL     OW22787   5.074   3.185   4.443 -0.7060  0.0369 -0.3239
 5900SOL    HW122788   5.116   3.147   4.520  0.5621  0.6878 -0.6659
 5900SOL    HW222789   5.008   3.244   4.478 -1.0809 -0.7262  0.2446
 5900SOL     MW22790   5.071   3.188   4.458 -0.5918  0.0224 -0.2947
 5901SOL     OW22791   5.751   5.726   4.527 -0.3577  0.1571  0.0126
 5901SOL    HW122792   5.735   5.693   4.615  0.4930 -2.3756 -0.7265
 5901SOL    HW222793   5.846   5.731   4.520 -0.4040 -0.0599 -0.8975
 5901SOL     MW22794   5.761   5.722   4.537 -0.2551 -0.1955 -0.1984
 5902SOL     OW22795   4.967   4.644   3.923  0.2454  0.2368 -0.5112
 5902SOL    HW122796   5.047   4.593   3.935  0.7738  0.7516 -1.7173
 5902SOL    HW222797   4.899   4.578   3.908  0.6806 -0.1666 -0.7459
 5902SOL     MW22798   4.969   4.629   3.922  0.3691  0.2513 -0.6957
 5903SOL     OW22799   4.781   5.625   2.528 -0.5446  0.0576 -0.1776
 5903SOL    HW122800   4.708   5.671   2.570 -0.2453 -0.9191  1.4351
 5903SOL    HW222801   4.741   5.581   2.453 -1.5051  0.0437  0.3272
 5903SOL     MW22802   4.766   5.625   2.524 -0.6294 -0.0691  0.0935
 5904SOL     OW22803   4.847   4.677   2.933  0.0462  0.4366  0.9288
 5904SOL    HW122804   4.753   4.657   2.923  0.0735 -0.0906  1.7248
 5904SOL    HW222805   4.876   4.698   2.844 -0.4995 -0.8548  0.4287
 5904SOL     MW22806   4.838   4.677   2.920 -0.0196  0.2041  0.9665
 5905SOL     OW22807   3.421   0.038   3.425 -0.3979  1.0243  0.5862
 5905SOL    HW122808   3.516   0.034   3.414 -0.2587  1.2712  1.6155
 5905SOL    HW222809   3.396  -0.049   3.454 -0.3489  1.2406  1.2856
 5905SOL     MW22810   3.430   0.027   3.427 -0.3738  1.0839  0.8075
 5906SOL     OW22811   4.675   3.248   4.830  0.3359  0.1112 -0.5659
 5906SOL    HW122812   4.588   3.215   4.853  1.2060 -1.2164  0.9471
 5906SOL    HW222813   4.694   3.314   4.896 -0.0107  1.2458 -1.5987
 5906SOL     MW22814   4.666   3.252   4.841  0.4029  0.0865 -0.5045
 5907SOL     OW22815   1.834   5.338   0.899 -0.4554 -0.1166  0.0989
 5907SOL    HW122816   1.804   5.291   0.821  0.8974  0.4510 -0.7882
 5907SOL    HW222817   1.779   5.417   0.901  0.5186  0.6249 -1.1761
 5907SOL     MW22818   1.823   5.342   0.889 -0.1575  0.0515 -0.1780
 5908SOL     OW22819   5.428   0.937   4.555  0.4533  0.7498  0.2711
 5908SOL    HW122820   5.346   0.987   4.547  0.6659  1.0668  0.0457
 5908SOL    HW222821   5.410   0.871   4.622  0.1338  1.0600  0.4916
 5908SOL     MW22822   5.415   0.935   4.562  0.4396  0.8302  0.2704
 5909SOL     OW22823   0.946   1.548   4.507 -0.3859  0.0423 -0.6496
 5909SOL    HW122824   1.018   1.589   4.458  0.8919 -0.9583  0.3830
 5909SOL    HW222825   0.943   1.458   4.475  0.2437 -0.5315  0.8748
 5909SOL     MW22826   0.955   1.542   4.496 -0.1417 -0.1593 -0.3223
 5910SOL     OW22827   1.091   4.111   2.075 -0.5620  0.2134 -0.1578
 5910SOL    HW122828   1.170   4.083   2.122  0.2471  0.4562 -1.3367
 5910SOL    HW222829   1.076   4.201   2.105 -1.3788 -0.4208  1.3384
 5910SOL     MW22830   1.100   4.119   2.085 -0.5630  0.1636 -0.1171
 5911SOL     OW22831   5.589   5.335   2.342  0.1848  0.7975  0.2636
 5911SOL    HW122832   5.594   5.278   2.265 -2.9880 -1.3009  1.5005
 5911SOL    HW222833   5.677   5.332   2.380  0.5506 -1.9451 -0.6674
 5911SOL     MW22834   5.601   5.327   2.337 -0.1745  0.1779  0.3030
 5912SOL     OW22835   3.245   3.191   1.949 -0.2522  0.0475 -0.1301
 5912SOL    HW122836   3.160   3.154   1.926 -1.1443 -0.2952  3.3955
 5912SOL    HW222837   3.306   3.117   1.942 -0.9120 -0.5990  0.7904
 5912SOL     MW22838   3.242   3.177   1.945 -0.4506 -0.0792  0.4390
 5913SOL     OW22839   0.939   5.211   1.431 -0.0629  0.4064 -0.1089
 5913SOL    HW122840   0.854   5.173   1.409  0.0215 -0.1279  0.4700
 5913SOL    HW222841   0.938   5.217   1.526  0.6655  0.1237 -0.0821
 5913SOL     MW22842   0.928   5.207   1.440  0.0411  0.3023 -0.0314
 5914SOL     OW22843   2.547   0.839   1.335  0.7873 -0.4394 -0.1762
 5914SOL    HW122844   2.641   0.825   1.325  0.9879  1.5627 -1.3084
 5914SOL    HW222845   2.539   0.894   1.413  0.6730  0.5910 -0.9064
 5914SOL     MW22846   2.558   0.844   1.344  0.7982 -0.0513 -0.4145
 5915SOL     OW22847   1.632   5.963   5.622  0.0349 -0.1679 -0.0474
 5915SOL    HW122848   1.627   5.874   5.587 -1.0565  0.1628 -0.7742
 5915SOL    HW222849   1.633   5.951   5.717 -1.0751 -0.9352 -0.1136
 5915SOL     MW22850   1.632   5.950   5.629 -0.2469 -0.2236 -0.1483
 5916SOL     OW22851   1.457   0.332   5.193 -0.2707  0.0498 -0.1883
 5916SOL    HW122852   1.456   0.392   5.267  0.5298  1.4269 -1.2878
 5916SOL    HW222853   1.532   0.274   5.209  1.0043  1.4949 -0.8106
 5916SOL     MW22854   1.466   0.332   5.204 -0.0050  0.4111 -0.4086
 5917SOL     OW22855   4.553   3.540   1.346  0.2537 -0.0382  0.3106
 5917SOL    HW122856   4.468   3.575   1.320  0.0988  0.6399  1.7247
 5917SOL    HW222857   4.616   3.606   1.316  0.1049  0.5522  1.2865
 5917SOL     MW22858   4.550   3.553   1.339  0.2146  0.1242  0.6166
 5918SOL     OW22859   5.553   3.145   1.187 -0.0198 -0.1397 -0.3113
 5918SOL    HW122860   5.519   3.124   1.275  0.0632 -0.2318 -0.3014
 5918SOL    HW222861   5.621   3.080   1.172 -0.3222 -0.3866 -0.6190
 5918SOL     MW22862   5.557   3.134   1.197 -0.0482 -0.1831 -0.3494
 5919SOL     OW22863   3.487   0.047   3.715  0.2376  0.3667  0.1261
 5919SOL    HW122864   3.457   0.038   3.624 -0.0780  0.0263  0.2618
 5919SOL    HW222865   3.531   0.132   3.717 -0.7537  0.8933 -0.0676
 5919SOL     MW22866   3.489   0.057   3.704  0.0706  0.3906  0.1187
 5920SOL     OW22867   2.420   4.725   3.516 -0.5219  0.1861  0.1907
 5920SOL    HW122868   2.475   4.787   3.467  1.8465 -0.4261  1.9410
 5920SOL    HW222869   2.334   4.731   3.475  0.5405  2.0980 -1.8808
 5920SOL     MW22870   2.416   4.734   3.505 -0.0825  0.3524  0.1495
 5921SOL     OW22871   0.372   3.317   5.301  0.3734  0.3607  0.1798
 5921SOL    HW122872   0.325   3.307   5.384  0.3409  1.0214  0.2453
 5921SOL    HW222873   0.383   3.411   5.291  0.3269  0.2912 -0.5973
 5921SOL     MW22874   0.367   3.328   5.310  0.3633  0.4363  0.0882
 5922SOL     OW22875   4.614   1.438   4.715 -0.5317 -0.5355  0.2140
 5922SOL    HW122876   4.533   1.390   4.696 -2.8291  3.1733  0.0871
 5922SOL    HW222877   4.648   1.464   4.630 -0.7631  0.2967  0.3668
 5922SOL     MW22878   4.608   1.435   4.702 -0.8554  0.0459  0.2179
 5923SOL     OW22879   4.752   0.200   3.023 -0.2533 -0.3862  0.2471
 5923SOL    HW122880   4.708   0.285   3.019 -1.6716 -1.0934  0.7204
 5923SOL    HW222881   4.713   0.156   3.099  1.1340 -1.1035  0.5662
 5923SOL     MW22882   4.742   0.206   3.033 -0.2570 -0.5686  0.3488
 5924SOL     OW22883   5.243   5.614   4.521 -0.1079 -0.4373 -0.0426
 5924SOL    HW122884   5.306   5.574   4.460 -0.5514  0.5672 -1.1684
 5924SOL    HW222885   5.161   5.618   4.472 -0.1051  1.7405  0.1029
 5924SOL     MW22886   5.241   5.609   4.507 -0.1645 -0.0300 -0.1678
 5925SOL     OW22887   4.166   3.384   4.144 -0.1971 -0.9476  0.8321
 5925SOL    HW122888   4.112   3.453   4.184 -1.1381 -1.2272  0.0683
 5925SOL    HW222889   4.175   3.318   4.213  0.6500 -0.1050  1.5444
 5925SOL     MW22890   4.160   3.385   4.158 -0.2089 -0.8757  0.8259
 5926SOL     OW22891   2.025   4.665   3.706 -0.3994 -0.2691 -0.2085
 5926SOL    HW122892   2.087   4.607   3.750 -0.7886  0.1744  0.9372
 5926SOL    HW222893   2.069   4.690   3.624  0.3522 -1.0470 -0.0476
 5926SOL     MW22894   2.038   4.661   3.701 -0.3531 -0.3123 -0.0415
 5927SOL     OW22895   2.822   2.934   5.091 -0.2105  0.2025  0.8826
 5927SOL    HW122896   2.830   3.019   5.135 -1.1382 -0.2578  1.9713
 5927SOL    HW222897   2.847   2.952   5.000 -1.1900  1.8212  0.9045
 5927SOL     MW22898   2.826   2.947   5.085 -0.4547  0.3510  1.0252
 5928SOL     OW22899   5.228   0.401   1.121 -0.4376  0.0891 -0.4438
 5928SOL    HW122900   5.218   0.311   1.150  2.9631  0.3862  1.9002
 5928SOL    HW222901   5.168   0.451   1.177  0.9167 -0.2158  1.3218
 5928SOL     MW22902   5.219   0.396   1.132  0.1707  0.0881  0.0824
 5929SOL     OW22903   0.720   0.830   0.475  0.1956 -0.4526 -0.4829
 5929SOL    HW122904   0.738   0.804   0.385  0.7049 -3.4306  0.4076
 5929SOL    HW222905   0.625   0.827   0.482  0.0563  1.4633 -1.3649
 5929SOL     MW22906   0.710   0.826   0.465  0.2429 -0.5885 -0.4818
 5930SOL     OW22907   4.369   1.938   2.117 -0.0357  0.6640  0.4271
 5930SOL    HW122908   4.298   1.885   2.080  1.9806 -1.1538 -0.9374
 5930SOL    HW222909   4.435   1.875   2.143  0.9829  2.3263  1.9387
 5930SOL     MW22910   4.368   1.923   2.115  0.3533  0.6441  0.4458
 5931SOL     OW22911   2.280   3.419   2.276 -0.4167  0.8968  0.1996
 5931SOL    HW122912   2.217   3.377   2.217 -1.2648  0.9904  1.0282
 5931SOL    HW222913   2.246   3.507   2.290  0.8864  1.5651 -0.8113
 5931SOL     MW22914   2.268   3.425   2.270 -0.3586  0.9942  0.1762
 5932SOL     OW22915   4.768   4.072   3.246  0.3015  0.1112 -0.8907
 5932SOL    HW122916   4.674   4.085   3.257 -0.0471 -1.4742 -1.8013
 5932SOL    HW222917   4.780   3.977   3.251  1.8378  0.2791 -0.9581
 5932SOL     MW22918   4.758   4.061   3.248  0.4530 -0.0701 -1.0159
 5933SOL     OW22919   5.358   3.465   3.981 -0.5026 -0.0706 -0.3761
 5933SOL    HW122920   5.389   3.477   3.892 -1.4589  0.4610 -0.6472
 5933SOL    HW222921   5.437   3.462   4.035  0.0201  0.8194 -1.0921
 5933SOL     MW22922   5.372   3.466   3.976 -0.5579  0.1116 -0.5026
 5934SOL     OW22923   1.444   4.980   1.985  0.2601 -0.1381 -0.3027
 5934SOL    HW122924   1.524   5.022   2.017 -0.1244  0.6321 -0.3270
 5934SOL    HW222925   1.467   4.947   1.898  0.5614  0.0516 -0.2953
 5934SOL     MW22926   1.457   4.981   1.978  0.2495 -0.0153 -0.3049
 5935SOL     OW22927   1.020   4.276   0.914  0.3208  0.2409  0.4316
 5935SOL    HW122928   1.027   4.199   0.971  2.3898  0.3773  0.4164
 5935SOL    HW222929   1.071   4.253   0.837 -0.9141  0.7844 -0.5544
 5935SOL     MW22930   1.028   4.263   0.912  0.4275  0.3281  0.3034
 5936SOL     OW22931   4.822   1.861   5.594  0.1252  0.7849 -0.2453
 5936SOL    HW122932   4.775   1.944   5.594 -0.9157  0.2026 -0.6228
 5936SOL    HW222933   4.753   1.794   5.594  0.9458 -0.0723 -0.9205
 5936SOL     MW22934   4.807   1.863   5.594  0.0973  0.6006 -0.3805
 5937SOL     OW22935   5.863   1.456   1.085  0.3810  0.1638  0.2731
 5937SOL    HW122936   5.872   1.387   1.019  0.6546  1.6467 -1.2754
 5937SOL    HW222937   5.891   1.536   1.041 -0.6564  1.4111  1.7877
 5937SOL     MW22938   5.868   1.458   1.071  0.2837  0.5134  0.2688
 5938SOL     OW22939   1.428   1.646   2.252 -0.6004 -1.1775  0.2766
 5938SOL    HW122940   1.513   1.637   2.209 -0.1972 -1.2664  1.0978
 5938SOL    HW222941   1.412   1.740   2.255 -0.3498 -1.1424  0.4882
 5938SOL     MW22942   1.437   1.657   2.247 -0.5167 -1.1842  0.4091
 5939SOL     OW22943   1.805   1.585   4.717  0.1530  0.3669 -0.2353
 5939SOL    HW122944   1.858   1.589   4.637 -0.4635 -0.9920 -0.7369
 5939SOL    HW222945   1.716   1.575   4.685 -0.0029 -1.0571  0.6331
 5939SOL     MW22946   1.801   1.584   4.702  0.0540  0.0107 -0.1879
 5940SOL     OW22947   2.120   5.634   2.290 -0.5574 -0.4794  0.3567
 5940SOL    HW122948   2.203   5.588   2.299 -1.2329 -1.3625  2.2407
 5940SOL    HW222949   2.054   5.565   2.293 -1.4069  0.2967 -0.3166
 5940SOL     MW22950   2.122   5.619   2.292 -0.7527 -0.4926  0.5116
 5941SOL     OW22951   4.245   0.533   3.721  0.4426  0.3233  0.4127
 5941SOL    HW122952   4.278   0.445   3.704 -2.0404 -0.8514  1.3028
 5941SOL    HW222953   4.247   0.541   3.816 -2.3464 -0.0861  0.5644
 5941SOL     MW22954   4.249   0.522   3.731 -0.2317  0.1205  0.5462
 5942SOL     OW22955   3.554   3.125   2.302  0.1718 -0.0557 -0.0625
 5942SOL    HW122956   3.636   3.141   2.349  1.0004  0.9383 -1.8037
 5942SOL    HW222957   3.551   3.192   2.234 -0.8548 -1.6136 -1.6224
 5942SOL     MW22958   3.564   3.135   2.299  0.1464 -0.1278 -0.4854
 5943SOL     OW22959   0.575   4.470   2.909  0.0854  0.4167  0.4922
 5943SOL    HW122960   0.608   4.440   2.994 -0.6067  1.5819  1.1883
 5943SOL    HW222961   0.566   4.565   2.919 -1.6102  0.3575 -0.3087
 5943SOL     MW22962   0.578   4.478   2.921 -0.2202  0.5584  0.4787
 5944SOL     OW22963   5.574   3.489   2.183 -0.0388  0.8985  0.4129
 5944SOL    HW122964   5.505   3.517   2.243  0.6893  0.6556  1.3760
 5944SOL    HW222965   5.568   3.393   2.183 -0.2226  0.9073 -0.1312
 5944SOL     MW22966   5.565   3.480   2.191  0.0305  0.8688  0.4666
 5945SOL     OW22967   4.396   1.289   0.453 -0.1885 -0.8103  0.3197
 5945SOL    HW122968   4.317   1.318   0.407 -0.3185 -0.2061  0.9179
 5945SOL    HW222969   4.464   1.350   0.423 -0.6263  0.6209  2.1612
 5945SOL     MW22970   4.395   1.301   0.443 -0.2608 -0.5498  0.6320
 5946SOL     OW22971   4.147   3.543   1.701  0.1217  0.1765  0.2025
 5946SOL    HW122972   4.121   3.508   1.787  0.3820 -1.0942 -0.2275
 5946SOL    HW222973   4.207   3.615   1.722  0.4076 -0.3061  1.0872
 5946SOL     MW22974   4.151   3.548   1.715  0.1917 -0.0477  0.2607
 5947SOL     OW22975   1.207   5.377   4.032  0.8959  0.3752  0.1145
 5947SOL    HW122976   1.244   5.289   4.034  0.2796  0.0883 -1.0464
 5947SOL    HW222977   1.115   5.365   4.057  1.0938  0.8511  1.1283
 5947SOL     MW22978   1.200   5.364   4.036  0.8423  0.3991  0.0954
 5948SOL     OW22979   2.988   1.639   0.082  0.6738 -0.2335 -0.0163
 5948SOL    HW122980   3.041   1.690   0.143  0.3032  0.1163  0.0138
 5948SOL    HW222981   3.007   1.548   0.103 -0.2545 -0.1245  1.3091
 5948SOL     MW22982   2.997   1.634   0.092  0.5076 -0.1748  0.1572
 5949SOL     OW22983   2.609   2.051   0.260 -0.5409 -0.2287  0.3338
 5949SOL    HW122984   2.663   2.122   0.223  0.3086 -0.4593  1.1377
 5949SOL    HW222985   2.524   2.062   0.217 -1.4248  3.2638  2.7505
 5949SOL     MW22986   2.605   2.062   0.249 -0.5453  0.1888  0.7460
 5950SOL     OW22987   0.716   2.420   2.106 -0.7271  0.4379 -0.3191
 5950SOL    HW122988   0.658   2.372   2.046  0.2162  1.1319 -1.8026
 5950SOL    HW222989   0.777   2.466   2.049  0.0450  1.3054  1.1799
 5950SOL     MW22990   0.716   2.420   2.091 -0.5075  0.6378 -0.3173
 5951SOL     OW22991   2.507   5.884   0.142 -0.1752  0.3957  0.7016
 5951SOL    HW122992   2.595   5.872   0.107  0.4246  2.9229  1.2360
 5951SOL    HW222993   2.520   5.909   0.233 -1.4855 -0.0903  1.0363
 5951SOL     MW22994   2.520   5.886   0.149 -0.2661  0.6566  0.8129
 5952SOL     OW22995   4.095   3.097   2.213 -0.3522  0.4494  0.0219
 5952SOL    HW122996   4.154   3.171   2.228 -0.7426  0.6171  0.7341
 5952SOL    HW222997   4.048   3.087   2.295  0.4267 -1.2548  0.2873
 5952SOL     MW22998   4.097   3.106   2.226 -0.3023  0.2527  0.1469
 5953SOL     OW22999   0.858   0.740   1.729  0.1816  0.1574  0.1309
 5953SOL    HW123000   0.801   0.696   1.666 -0.6849  0.8821  0.3874
 5953SOL    HW223001   0.908   0.670   1.770 -0.1182 -0.4384 -0.5106
 5953SOL     MW23002   0.857   0.726   1.726  0.0323  0.1738  0.0817
 5954SOL     OW23003   0.265   1.231   0.521 -0.4114 -0.7290  0.2265
 5954SOL    HW123004   0.202   1.287   0.477  0.5615  0.9831  0.9853
 5954SOL    HW223005   0.318   1.194   0.451  0.0810  0.7048 -0.1616
 5954SOL     MW23006   0.264   1.233   0.507 -0.2239 -0.3263  0.2739
 5955SOL     OW23007   5.694   0.576   1.958 -0.1180  0.0681  0.0634
 5955SOL    HW123008   5.776   0.626   1.957 -0.2861  0.3491  0.2171
 5955SOL    HW223009   5.651   0.599   1.875 -0.5994  0.8589  0.5232
 5955SOL     MW23010   5.699   0.586   1.947 -0.2017  0.2053  0.1420
 5956SOL     OW23011   4.166   1.614   4.085 -0.4406  0.1164 -0.2729
 5956SOL    HW123012   4.092   1.650   4.035 -1.3267 -0.2338  0.7647
 5956SOL    HW223013   4.240   1.618   4.025 -1.0036  1.6999 -0.8973
 5956SOL     MW23014   4.166   1.619   4.071 -0.6261  0.2743 -0.2198
 5957SOL     OW23015   2.710   3.484   4.334  0.0456 -0.1357  0.3559
 5957SOL    HW123016   2.641   3.522   4.280  0.2049  0.2121  0.3951
 5957SOL    HW223017   2.670   3.408   4.375  0.4232 -1.4311 -1.6133
 5957SOL     MW23018   2.696   3.479   4.332  0.1144 -0.2570  0.1092
 5958SOL     OW23019   4.431   2.086   2.324 -0.4959 -0.2129  0.4568
 5958SOL    HW123020   4.514   2.039   2.333 -1.0265 -1.3673 -0.6746
 5958SOL    HW223021   4.389   2.048   2.247 -1.6299  1.0574  0.4264
 5958SOL     MW23022   4.436   2.075   2.315 -0.7086 -0.1981  0.3080
 5959SOL     OW23023   0.340   0.740   1.496 -0.8606  0.1027  0.1216
 5959SOL    HW123024   0.330   0.795   1.419 -1.4536  0.1991  0.2634
 5959SOL    HW223025   0.431   0.711   1.493 -0.6263  0.8330 -0.1272
 5959SOL     MW23026   0.351   0.744   1.486 -0.9065  0.2086  0.1079
 5960SOL     OW23027   3.931   5.884   0.919  0.0797  0.0629 -0.7738
 5960SOL    HW123028   4.021   5.851   0.922  0.3642  0.9696  1.5003
 5960SOL    HW223029   3.933   5.951   0.851  1.0395 -0.2124 -1.0303
 5960SOL     MW23030   3.943   5.889   0.911  0.2391  0.1435 -0.5155
 5961SOL     OW23031   3.160   3.638   0.926  0.1861 -0.4583  0.2658
 5961SOL    HW123032   3.115   3.695   0.864  0.0589 -1.3914 -0.5114
 5961SOL    HW223033   3.112   3.649   1.008 -0.4246 -0.1849 -0.1287
 5961SOL     MW23034   3.148   3.647   0.929  0.0918 -0.5426  0.1159
 5962SOL     OW23035   3.914   2.686   3.823 -0.2952  0.3671 -0.3097
 5962SOL    HW123036   3.984   2.701   3.760  0.2509  0.7238  0.3658
 5962SOL    HW223037   3.957   2.642   3.897 -0.9226 -0.0487 -0.1790
 5962SOL     MW23038   3.928   2.682   3.825 -0.3057  0.3595 -0.2067
 5963SOL     OW23039   0.338   5.012   2.749  0.1032  0.2875  0.0995
 5963SOL    HW123040   0.337   4.918   2.767 -1.9037  0.1654 -0.4602
 5963SOL    HW223041   0.428   5.039   2.766  0.2622 -1.3720  2.1222
 5963SOL     MW23042   0.349   5.003   2.753 -0.1334  0.0591  0.2868
 5964SOL     OW23043   5.094   3.495   2.740 -0.3090  0.0126  0.1264
 5964SOL    HW123044   5.173   3.462   2.697 -0.5659 -1.6300  0.8953
 5964SOL    HW223045   5.053   3.418   2.778 -1.6203  1.0398  0.8347
 5964SOL     MW23046   5.099   3.481   2.739 -0.5097 -0.0660  0.3154
 5965SOL     OW23047   3.360   3.841   4.472  0.0671  0.0448 -0.7189
 5965SOL    HW123048   3.441   3.862   4.518 -0.4858  0.3003  0.1454
 5965SOL    HW223049   3.309   3.922   4.475 -0.3514 -0.2052 -0.9935
 5965SOL     MW23050   3.363   3.854   4.478 -0.0572  0.0455 -0.6433
 5966SOL     OW23051   3.589   5.055   2.489  0.0283  0.1450  0.3033
 5966SOL    HW123052   3.617   5.025   2.576 -0.1712 -0.3635  0.1956
 5966SOL    HW223053   3.671   5.074   2.443  0.0970  1.7308  1.0581
 5966SOL     MW23054   3.603   5.054   2.494  0.0114  0.2823  0.3860
 5967SOL     OW23055   1.387   3.412   0.047  0.1987 -0.3292  0.2565
 5967SOL    HW123056   1.417   3.494   0.009 -2.2486  0.2001 -0.5757
 5967SOL    HW223057   1.405   3.421   0.141 -0.0716  1.1660  0.1732
 5967SOL     MW23058   1.393   3.424   0.054 -0.1493 -0.0701  0.1393
 5968SOL     OW23059   5.877   2.394   5.595  0.6472 -0.2280  0.0370
 5968SOL    HW123060   5.844   2.308   5.566  0.4425 -0.4289  0.8730
 5968SOL    HW223061   5.910   2.435   5.514 -1.1759 -0.2359 -0.7348
 5968SOL     MW23062   5.877   2.388   5.581  0.3877 -0.2549  0.0448
 5969SOL     OW23063   2.390   0.666   2.956 -0.2376  0.1827  0.6473
 5969SOL    HW123064   2.394   0.642   2.864  2.0111  0.3910  0.6550
 5969SOL    HW223065   2.305   0.634   2.986 -0.5887 -0.7253 -1.2523
 5969SOL     MW23066   2.379   0.659   2.948  0.0055  0.0932  0.4051
 5970SOL     OW23067   3.519   4.175   0.934 -0.1912  0.1857  0.0879
 5970SOL    HW123068   3.601   4.182   0.982  0.0360  0.3209 -0.3193
 5970SOL    HW223069   3.452   4.168   1.002 -0.0679  2.3755  0.4531
 5970SOL     MW23070   3.521   4.175   0.949 -0.1466  0.4835  0.0825
 5971SOL     OW23071   1.060   3.318   0.952 -0.1942 -0.2286 -0.2101
 5971SOL    HW123072   1.023   3.285   0.870 -0.5290 -2.8701  0.9451
 5971SOL    HW223073   1.006   3.280   1.020  0.5665  1.3027  1.2934
 5971SOL     MW23074   1.048   3.309   0.950 -0.1397 -0.3707  0.1302
 5972SOL     OW23075   5.161   2.038   1.868 -0.2280  0.5537  0.0219
 5972SOL    HW123076   5.248   2.000   1.867 -0.7400 -0.6333 -0.4642
 5972SOL    HW223077   5.161   2.099   1.794  0.4088  1.0739  0.4491
 5972SOL     MW23078   5.172   2.041   1.858 -0.2127  0.4683  0.0144
 5973SOL     OW23079   0.751   5.151   4.450 -0.1953 -0.1581 -0.0267
 5973SOL    HW123080   0.780   5.202   4.373  0.1521 -0.7728 -0.3052
 5973SOL    HW223081   0.773   5.207   4.524 -0.4559  0.4070 -0.3725
 5973SOL     MW23082   0.758   5.165   4.449 -0.1842 -0.1640 -0.1068
 5974SOL     OW23083   4.803   1.252   3.942  0.6033 -0.0571 -0.2508
 5974SOL    HW123084   4.754   1.251   3.860  1.1131 -0.8019 -0.5540
 5974SOL    HW223085   4.834   1.162   3.953  0.6848  0.0738  0.6704
 5974SOL     MW23086   4.801   1.240   3.933  0.6790 -0.1357 -0.1714
 5975SOL     OW23087   2.525   4.989   0.144  0.3023 -0.4329 -0.3144
 5975SOL    HW123088   2.532   4.951   0.232  0.7398 -1.1744 -0.6634
 5975SOL    HW223089   2.602   5.046   0.136  0.9998 -1.4206 -0.7167
 5975SOL     MW23090   2.536   4.991   0.154  0.4475 -0.6542 -0.4106
 5976SOL     OW23091   4.888   3.462   1.217  0.6621 -0.5523 -0.1492
 5976SOL    HW123092   4.848   3.430   1.136 -0.1778 -0.7559  0.3365
 5976SOL    HW223093   4.885   3.386   1.276  0.1376 -0.0519  0.4742
 5976SOL     MW23094   4.882   3.448   1.214  0.4873 -0.5145 -0.0073
 5977SOL     OW23095   2.686   0.246   3.228 -0.0028 -0.0304  0.0244
 5977SOL    HW123096   2.629   0.180   3.190  1.2770 -1.8438  1.1986
 5977SOL    HW223097   2.757   0.256   3.164  0.0580 -0.1231  0.0789
 5977SOL     MW23098   2.688   0.239   3.215  0.1690 -0.2744  0.1822
 5978SOL     OW23099   5.314   5.541   0.583 -0.1471  0.3995 -0.1188
 5978SOL    HW123100   5.283   5.502   0.665 -0.2912 -0.0152 -0.3731
 5978SOL    HW223101   5.252   5.612   0.566  1.1896  1.9659  1.3329
 5978SOL     MW23102   5.302   5.545   0.591  0.0052  0.5469  0.0345
 5979SOL     OW23103   4.646   5.946   4.333  0.4808  1.1198  0.1329
 5979SOL    HW123104   4.579   5.931   4.399  1.7463 -0.4089  1.1196
 5979SOL    HW223105   4.724   5.971   4.383  0.5232  3.3610 -1.0251
 5979SOL     MW23106   4.647   5.947   4.348  0.6480  1.2102  0.1111
 5980SOL     OW23107   4.607   5.210   0.212 -0.2215  0.7584 -0.6661
 5980SOL    HW123108   4.579   5.198   0.121  3.2974 -0.6168 -1.6713
 5980SOL    HW223109   4.653   5.294   0.211  0.9564  0.1338 -0.5175
 5980SOL     MW23110   4.609   5.219   0.200  0.3800  0.5021 -0.7758
 5981SOL     OW23111   5.853   0.642   0.441 -0.2665 -0.5726  0.7488
 5981SOL    HW123112   5.942   0.630   0.409 -0.2453 -0.5451  0.7973
 5981SOL    HW223113   5.856   0.613   0.532 -0.5435 -1.5658  0.4555
 5981SOL     MW23114   5.865   0.637   0.449 -0.2990 -0.6962  0.7174
 5982SOL     OW23115   2.975   2.560   4.253 -0.0626 -0.0396  0.2747
 5982SOL    HW123116   2.959   2.479   4.302  1.3104  0.0557  0.9009
 5982SOL    HW223117   2.905   2.562   4.188 -1.5630 -0.4895  1.8252
 5982SOL     MW23118   2.964   2.550   4.251 -0.0787 -0.0846  0.5531
 5983SOL     OW23119   0.942   1.830   1.155  0.6496  0.1861  0.0812
 5983SOL    HW123120   0.954   1.803   1.247  3.5653  2.4479  0.4511
 5983SOL    HW223121   1.022   1.799   1.111 -0.7939 -1.0164 -1.7769
 5983SOL     MW23122   0.954   1.822   1.161  0.8381  0.3219 -0.1092
 5984SOL     OW23123   3.123   5.138   5.228  0.7812 -0.7702  0.3999
 5984SOL    HW123124   3.170   5.218   5.254 -0.8786  0.1940  0.5446
 5984SOL    HW223125   3.057   5.127   5.296  1.1158 -2.3901  0.4670
 5984SOL     MW23126   3.120   5.147   5.240  0.6115 -0.8545  0.4272
 5985SOL     OW23127   1.237   5.423   2.404  0.4160 -0.1814 -0.2037
 5985SOL    HW123128   1.227   5.331   2.428 -1.8225  0.3053  0.8276
 5985SOL    HW223129   1.275   5.464   2.482  0.6794 -0.0778 -0.3850
 5985SOL     MW23130   1.241   5.416   2.417  0.1631 -0.1059 -0.0949
 5986SOL     OW23131   1.567   0.896   5.672 -0.6102  0.8877  0.5068
 5986SOL    HW123132   1.620   0.854   5.604 -2.1557 -0.4149  0.0689
 5986SOL    HW223133   1.630   0.925   5.737  0.4720 -3.7720  1.7357
 5986SOL     MW23134   1.582   0.894   5.672 -0.6695  0.1245  0.6080
 5987SOL     OW23135   5.874   4.572   1.832  0.1052  0.5228  0.4971
 5987SOL    HW123136   5.942   4.605   1.773  1.2704 -1.3617  0.7677
 5987SOL    HW223137   5.872   4.635   1.904  0.7000  1.2420 -0.1073
 5987SOL     MW23138   5.882   4.584   1.833  0.3304  0.3738  0.4544
 5988SOL     OW23139   0.045   4.621   0.558  0.6635 -0.6852  0.0848
 5988SOL    HW123140  -0.028   4.559   0.565  1.3987 -1.4247  1.3241
 5988SOL    HW223141   0.013   4.688   0.497 -1.1948 -0.7861  0.9074
 5988SOL     MW23142   0.032   4.622   0.551  0.5197 -0.7925  0.3487
 5989SOL     OW23143   1.595   1.513   1.760 -0.3964  0.5032 -0.3764
 5989SOL    HW123144   1.691   1.517   1.762 -0.4278  1.0112  0.8647
 5989SOL    HW223145   1.569   1.533   1.850 -1.5844 -2.0213 -0.1218
 5989SOL     MW23146   1.604   1.516   1.772 -0.5527  0.2450 -0.1850
 5990SOL     OW23147   2.617   5.587   5.385 -0.3916  0.2148 -0.1565
 5990SOL    HW123148   2.684   5.568   5.451 -1.5269  0.6822  1.1448
 5990SOL    HW223149   2.642   5.533   5.309  0.5019 -0.8921  0.9040
 5990SOL     MW23150   2.629   5.578   5.384 -0.4227  0.1330  0.1464
 5991SOL     OW23151   3.627   4.659   0.805 -0.3688 -0.2409 -0.0141
 5991SOL    HW123152   3.686   4.672   0.730  1.3391  0.8168  1.4785
 5991SOL    HW223153   3.616   4.747   0.842 -1.6702 -0.6680  0.6390
 5991SOL     MW23154   3.633   4.672   0.800 -0.3166 -0.1602  0.2605
 5992SOL     OW23155   5.018   1.849   3.966  0.0815  0.3511  0.0011
 5992SOL    HW123156   4.982   1.807   4.044  0.6727  0.9669  0.6058
 5992SOL    HW223157   5.060   1.778   3.918  1.2171  0.2650  1.1032
 5992SOL     MW23158   5.019   1.834   3.970  0.3023  0.4190  0.2196
 5993SOL     OW23159   5.181   4.357   0.325  0.0862  0.0112  0.5609
 5993SOL    HW123160   5.203   4.276   0.369  1.2839  0.9360  1.6659
 5993SOL    HW223161   5.171   4.332   0.233  0.2964 -1.3965  0.9131
 5993SOL     MW23162   5.182   4.343   0.318  0.2666 -0.0505  0.7474
 5994SOL     OW23163   1.867   3.065   4.336  0.1792  0.0268  0.4715
 5994SOL    HW123164   1.894   3.157   4.344  0.1357  0.2509 -1.8001
 5994SOL    HW223165   1.946   3.019   4.309 -0.1347 -0.4057  0.2919
 5994SOL     MW23166   1.880   3.071   4.334  0.1335  0.0000  0.1578
 5995SOL     OW23167   5.783   4.955   3.600  0.2288 -0.2942 -0.2508
 5995SOL    HW123168   5.874   4.985   3.597  0.8306 -2.2214 -1.7266
 5995SOL    HW223169   5.789   4.860   3.611 -1.6372 -0.2737  1.3307
 5995SOL     MW23170   5.796   4.947   3.601  0.0668 -0.5383 -0.2375
 5996SOL     OW23171   0.329   3.318   2.567  0.1453  0.2564 -0.0412
 5996SOL    HW123172   0.354   3.354   2.652 -0.0790 -2.4764  1.2545
 5996SOL    HW223173   0.257   3.374   2.536  2.0057  2.8823  0.2823
 5996SOL     MW23174   0.323   3.330   2.574  0.3548  0.2427  0.1659
 5997SOL     OW23175   1.254   5.437   0.005  0.0297 -0.0330  0.1216
 5997SOL    HW123176   1.188   5.469   0.066 -1.4576  1.3889 -2.1554
 5997SOL    HW223177   1.263   5.344   0.026 -0.1117  0.5325  2.7700
 5997SOL     MW23178   1.247   5.429   0.015 -0.1788  0.2217  0.1688
 5998SOL     OW23179   2.200   0.449   2.505  0.3857 -0.1206  0.3349
 5998SOL    HW123180   2.178   0.372   2.557 -1.3074 -0.9580 -1.5585
 5998SOL    HW223181   2.128   0.510   2.522  0.0132 -0.2598 -0.7470
 5998SOL     MW23182   2.188   0.447   2.514  0.1214 -0.2456 -0.0460
 5999SOL     OW23183   3.954   2.068   0.474  0.1375  0.2035 -0.3836
 5999SOL    HW123184   3.904   2.118   0.538  1.7040  1.0937  0.1647
 5999SOL    HW223185   4.015   2.132   0.436  0.5950 -0.7771 -1.3178
 5999SOL     MW23186   3.955   2.083   0.477  0.3967  0.1919 -0.4330
 6000SOL     OW23187   4.004   5.232   5.094  0.3975  0.4275 -0.9412
 6000SOL    HW123188   4.025   5.272   5.178 -0.1524 -1.1028 -0.0436
 6000SOL    HW223189   4.089   5.214   5.054  0.8557 -3.2737  1.4728
 6000SOL     MW23190   4.018   5.235   5.100  0.3858 -0.2418 -0.5169
 6001SOL     OW23191   4.098   3.474   1.962  0.0728  0.0896 -0.1891
 6001SOL    HW123192   4.013   3.517   1.975  0.6217  1.1896 -0.1516
 6001SOL    HW223193   4.083   3.383   1.988 -1.0788  0.2856 -0.1323
 6001SOL     MW23194   4.085   3.468   1.967 -0.0038  0.2556 -0.1770
 6002SOL     OW23195   5.887   5.689   2.192 -0.4893  0.4320  0.0223
 6002SOL    HW123196   5.845   5.716   2.111  0.1022  0.6412 -0.2172
 6002SOL    HW223197   5.898   5.595   2.183 -1.5717  0.2596  0.4015
 6002SOL     MW23198   5.883   5.681   2.180 -0.5517  0.4368  0.0405
 6003SOL     OW23199   1.752   1.850   5.464  0.3900  0.3567 -0.3304
 6003SOL    HW123200   1.664   1.813   5.470 -0.3863  2.4101  1.7996
 6003SOL    HW223201   1.810   1.780   5.493 -0.8965  0.1903  1.9779
 6003SOL     MW23202   1.748   1.836   5.469  0.1258  0.5982  0.2375
 6004SOL     OW23203   0.940   2.787   2.126 -0.1842  0.4510 -0.5089
 6004SOL    HW123204   0.883   2.762   2.198  1.4147  1.0544  0.9802
 6004SOL    HW223205   0.935   2.713   2.065  0.0699 -0.9877  1.1962
 6004SOL     MW23206   0.932   2.774   2.127  0.0530  0.3440 -0.0999
 6005SOL     OW23207   3.407   0.804   4.920  0.0887 -0.2480  0.1634
 6005SOL    HW123208   3.489   0.837   4.958  0.9964 -1.0406 -1.0709
 6005SOL    HW223209   3.406   0.711   4.945 -0.1043 -0.3911 -0.3894
 6005SOL     MW23210   3.418   0.796   4.928  0.1802 -0.3677 -0.0658
 6006SOL     OW23211   5.294   2.738   3.238 -0.2654 -0.0565 -0.2028
 6006SOL    HW123212   5.318   2.830   3.226  0.0608  0.1943  2.2669
 6006SOL    HW223213   5.216   2.727   3.184  0.1575  1.4524 -1.1685
 6006SOL     MW23214   5.287   2.748   3.229 -0.1693  0.1688 -0.0103
 6007SOL     OW23215   5.292   3.527   5.253 -0.2426  0.6440  0.2383
 6007SOL    HW123216   5.368   3.532   5.310 -1.8924  0.7185  2.5045
 6007SOL    HW223217   5.311   3.454   5.194  2.2578  1.6975 -0.3095
 6007SOL     MW23218   5.304   3.518   5.253 -0.1335  0.7885  0.4582
 6008SOL     OW23219   0.315   4.066   4.745 -0.2446  0.0338 -0.0539
 6008SOL    HW123220   0.401   4.030   4.725  1.0828  0.5324  4.1497
 6008SOL    HW223221   0.254   3.994   4.733  1.1712 -1.1381 -0.2372
 6008SOL     MW23222   0.318   4.052   4.741  0.1066 -0.0525  0.4606
 6009SOL     OW23223   0.174   3.217   5.487 -0.3003  0.4456 -0.1618
 6009SOL    HW123224   0.207   3.233   5.575 -1.6659 -0.4899  0.5491
 6009SOL    HW223225   0.219   3.138   5.459 -1.3870 -0.4431  0.5386
 6009SOL     MW23226   0.184   3.209   5.495 -0.6142  0.2122  0.0181
 6010SOL     OW23227   3.428   2.298   0.802  0.3063  0.3602  0.2550
 6010SOL    HW123228   3.500   2.321   0.743  0.5264 -0.4726  0.1980
 6010SOL    HW223229   3.398   2.382   0.837 -0.9509  1.0630 -2.3734
 6010SOL     MW23230   3.433   2.312   0.799  0.1733  0.3438 -0.0887
 6011SOL     OW23231   1.494   1.424   3.259  0.5169  0.5799 -0.4948
 6011SOL    HW123232   1.585   1.422   3.229  0.2471  0.8265 -1.3482
 6011SOL    HW223233   1.498   1.463   3.347  1.2686  0.2676 -0.3882
 6011SOL     MW23234   1.506   1.429   3.267  0.5786  0.5714 -0.5903
 6012SOL     OW23235   1.959   1.346   5.089 -0.1687  0.1692  0.3607
 6012SOL    HW123236   1.943   1.258   5.124  0.2689 -0.2445 -0.4777
 6012SOL    HW223237   1.894   1.357   5.020 -0.9935  0.9672  1.2516
 6012SOL     MW23238   1.949   1.336   5.085 -0.2183  0.2183  0.3672
 6013SOL     OW23239   4.737   2.651   0.135  0.6619  0.1728  0.1870
 6013SOL    HW123240   4.825   2.688   0.125  0.5342  0.0111 -1.7244
 6013SOL    HW223241   4.752   2.559   0.155  0.9279 -0.0003 -0.8008
 6013SOL     MW23242   4.750   2.644   0.136  0.6800  0.1299 -0.1842
 6014SOL     OW23243   1.499   2.611   0.150  0.3023  0.3086  0.6933
 6014SOL    HW123244   1.564   2.662   0.102  1.2618 -0.5974  1.0072
 6014SOL    HW223245   1.532   2.608   0.240 -0.4471  0.2869  0.9744
 6014SOL     MW23246   1.511   2.617   0.155  0.3293  0.1898  0.7695
 6015SOL     OW23247   2.881   5.066   5.350 -0.8989 -0.4635  0.3432
 6015SOL    HW123248   2.798   5.077   5.397 -2.2863 -2.4875 -1.5462
 6015SOL    HW223249   2.856   5.062   5.258  1.8654  4.3060 -0.7596
 6015SOL     MW23250   2.867   5.067   5.345 -0.7226 -0.1121 -0.0396
 6016SOL     OW23251   1.415   3.055   3.667 -0.0377 -0.2786 -0.8600
 6016SOL    HW123252   1.439   2.962   3.674  2.3587  0.3798 -0.1937
 6016SOL    HW223253   1.498   3.101   3.663 -1.1528  2.1275  2.1838
 6016SOL     MW23254   1.429   3.049   3.667  0.1264  0.1137 -0.3848
 6017SOL     OW23255   5.319   1.540   1.496 -0.0222  0.5158 -0.1029
 6017SOL    HW123256   5.225   1.531   1.480  0.0329 -1.5649  0.5006
 6017SOL    HW223257   5.333   1.495   1.579  1.2397  2.3954  0.7265
 6017SOL     MW23258   5.309   1.533   1.505  0.1464  0.4901  0.0805
 6018SOL     OW23259   0.562   5.984   3.189  0.2283 -0.5770 -0.2131
 6018SOL    HW123260   0.589   6.013   3.103  0.1072  0.7040  0.1792
 6018SOL    HW223261   0.564   5.888   3.184  0.7872 -0.5007 -1.4450
 6018SOL     MW23262   0.566   5.975   3.178  0.2844 -0.4033 -0.3207
 6019SOL     OW23263   3.364   0.099   1.334 -0.0249 -0.6351  0.3156
 6019SOL    HW123264   3.283   0.081   1.287 -0.3671  1.0479  0.2149
 6019SOL    HW223265   3.336   0.144   1.414  0.9402  3.3161 -1.4128
 6019SOL     MW23266   3.350   0.103   1.339  0.0548  0.0861  0.0815
 6020SOL     OW23267   5.685   2.795   1.754 -0.0437  0.1112 -0.0703
 6020SOL    HW123268   5.712   2.711   1.718 -1.0041  0.7807 -2.5247
 6020SOL    HW223269   5.628   2.773   1.827 -2.3099 -1.4658 -2.2155
 6020SOL     MW23270   5.681   2.782   1.759 -0.4568 -0.0050 -0.6591
 6021SOL     OW23271   2.164   3.136   0.360  0.3539  0.0139  0.3950
 6021SOL    HW123272   2.175   3.043   0.341 -0.5424  0.0654 -0.3978
 6021SOL    HW223273   2.073   3.145   0.387  0.4434  0.6574  0.4975
 6021SOL     MW23274   2.154   3.126   0.361  0.2503  0.1028  0.3066
 6022SOL     OW23275   4.859   0.647   1.510  0.5309 -0.3733  0.2041
 6022SOL    HW123276   4.772   0.628   1.473  1.4218 -0.8096 -1.7580
 6022SOL    HW223277   4.869   0.583   1.580 -0.1741 -1.2545 -0.4757
 6022SOL     MW23278   4.849   0.636   1.514  0.5546 -0.5420 -0.1340
 6023SOL     OW23279   0.795   1.505   2.665  0.6570 -0.1752  0.2333
 6023SOL    HW123280   0.840   1.426   2.636 -0.2608 -1.9936  3.4907
 6023SOL    HW223281   0.852   1.542   2.733  0.1736  0.8976  0.0692
 6023SOL     MW23282   0.808   1.500   2.670  0.4776 -0.2706  0.6292
 6024SOL     OW23283   5.904   4.974   0.638 -0.7551 -0.0261  0.9872
 6024SOL    HW123284   5.994   4.943   0.651 -0.8320 -0.3826  0.6976
 6024SOL    HW223285   5.914   5.062   0.601 -0.5272  0.0779  1.3018
 6024SOL     MW23286   5.917   4.981   0.635 -0.7358 -0.0577  0.9904
 6025SOL     OW23287   0.222   0.695   1.766 -0.1712  0.5725 -0.2843
 6025SOL    HW123288   0.209   0.701   1.672  1.5575 -1.1100 -0.6676
 6025SOL    HW223289   0.306   0.650   1.776 -0.1763  1.0002  2.0553
 6025SOL     MW23290   0.231   0.690   1.755  0.0495  0.4119 -0.0340
 6026SOL     OW23291   3.599   0.222   0.221  0.2980  0.5006  0.6493
 6026SOL    HW123292   3.513   0.246   0.188  0.7892  0.7939 -0.4430
 6026SOL    HW223293   3.607   0.269   0.304 -0.4785  0.7077  0.6089
 6026SOL     MW23294   3.589   0.231   0.227  0.2615  0.5647  0.5043
 6027SOL     OW23295   2.744   3.276   5.787  0.0032  0.0430 -0.4978
 6027SOL    HW123296   2.812   3.262   5.852  0.4463  0.6604 -0.8132
 6027SOL    HW223297   2.758   3.207   5.722  0.1985  0.0368 -0.4502
 6027SOL     MW23298   2.755   3.266   5.787  0.0846  0.1211 -0.5317
 6028SOL     OW23299   5.121   4.823   0.289 -0.1447  0.0322 -0.9082
 6028SOL    HW123300   5.153   4.859   0.372 -2.9687  0.2998  0.1403
 6028SOL    HW223301   5.156   4.734   0.286  1.9325  0.8217 -0.5900
 6028SOL     MW23302   5.130   4.816   0.299 -0.2398  0.1674 -0.7332
 6029SOL     OW23303   0.805   0.979   3.635 -0.1617  0.2219 -0.0957
 6029SOL    HW123304   0.711   0.987   3.654 -0.4149 -0.9000 -0.8216
 6029SOL    HW223305   0.845   0.968   3.721 -0.9073 -1.1344  0.0961
 6029SOL     MW23306   0.798   0.979   3.649 -0.2896 -0.0954 -0.1640
 6030SOL     OW23307   1.978   4.751   1.739  0.6429 -0.3119  0.9298
 6030SOL    HW123308   2.059   4.796   1.764  0.1595  0.5311  1.0222
 6030SOL    HW223309   1.991   4.660   1.765  1.1634  0.0318  1.8713
 6030SOL     MW23310   1.990   4.745   1.745  0.6477 -0.1597  1.0623
 6031SOL     OW23311   5.775   4.416   1.400  0.1396  0.6221 -0.2605
 6031SOL    HW123312   5.739   4.439   1.486  1.7824 -1.2320  0.9582
 6031SOL    HW223313   5.870   4.418   1.412  0.3813 -0.2386 -1.8741
 6031SOL     MW23314   5.783   4.420   1.412  0.3810  0.2742 -0.3109
 6032SOL     OW23315   1.344   2.203   1.603 -0.0282 -0.4217 -0.2809
 6032SOL    HW123316   1.248   2.197   1.611  0.1598 -0.6995  1.9268
 6032SOL    HW223317   1.362   2.297   1.605 -0.2066 -0.3885 -0.1694
 6032SOL     MW23318   1.334   2.214   1.604 -0.0271 -0.4530  0.0160
 6033SOL     OW23319   3.279   5.238   1.199  0.2213 -0.0023 -0.2030
 6033SOL    HW123320   3.299   5.219   1.291  1.5654 -0.4716 -0.5887
 6033SOL    HW223321   3.358   5.214   1.152 -0.1707  1.0176 -1.4011
 6033SOL     MW23322   3.291   5.233   1.205  0.3431  0.0682 -0.4058
 6034SOL     OW23323   2.092   4.096   5.801  0.2864 -0.2753  0.4280
 6034SOL    HW123324   2.081   4.081   5.895 -0.2837 -1.2572  0.2072
 6034SOL    HW223325   2.163   4.037   5.775 -0.9618 -1.5317 -0.1542
 6034SOL     MW23326   2.100   4.087   5.810  0.0536 -0.5622  0.3252
 6035SOL     OW23327   4.524   4.773   4.992 -0.0670 -0.2675 -0.6970
 6035SOL    HW123328   4.506   4.685   4.960  2.4466 -0.7989 -0.8062
 6035SOL    HW223329   4.600   4.762   5.049 -0.3889  1.6731  0.1338
 6035SOL     MW23330   4.532   4.761   4.995  0.2141 -0.0873 -0.6042
 6036SOL     OW23331   2.535   1.708   3.278  0.0321 -0.3157 -0.5883
 6036SOL    HW123332   2.563   1.782   3.224  0.0678 -1.8818 -2.7710
 6036SOL    HW223333   2.448   1.733   3.310  0.3435  0.9692 -0.7129
 6036SOL     MW23334   2.527   1.720   3.275  0.0768 -0.3518 -0.8836
 6037SOL     OW23335   1.793   4.590   3.158  0.0507 -0.0906  0.1917
 6037SOL    HW123336   1.807   4.651   3.231  0.6213  0.0522 -0.0356
 6037SOL    HW223337   1.735   4.637   3.098 -1.9977 -0.9440  1.4621
 6037SOL     MW23338   1.787   4.604   3.160 -0.1386 -0.1817  0.3252
 6038SOL     OW23339   4.026   4.994   4.350  0.5274 -0.0973  0.2724
 6038SOL    HW123340   3.994   5.075   4.388  2.1071  1.4763 -1.6320
 6038SOL    HW223341   4.019   5.007   4.255  1.1695 -2.0128 -0.0734
 6038SOL     MW23342   4.021   5.006   4.343  0.8121 -0.1411 -0.0157
 6039SOL     OW23343   3.628   1.481   1.372 -0.3400  0.0515 -0.0990
 6039SOL    HW123344   3.636   1.568   1.334  1.1783  1.0528  2.4024
 6039SOL    HW223345   3.542   1.480   1.413 -0.3758  0.3774 -0.1648
 6039SOL     MW23346   3.618   1.492   1.372 -0.1504  0.2214  0.2129
 6040SOL     OW23347   3.759   0.873   2.017 -0.2637  0.0686  0.1612
 6040SOL    HW123348   3.748   0.893   2.110 -0.1897  0.6009  0.0569
 6040SOL    HW223349   3.760   0.958   1.974  0.7212 -0.1278 -0.2157
 6040SOL     MW23350   3.758   0.886   2.024 -0.1280  0.1117  0.0994
 6041SOL     OW23351   3.802   4.630   0.570  0.1774  0.2582 -0.0320
 6041SOL    HW123352   3.805   4.669   0.483  0.8388 -3.5568 -1.8175
 6041SOL    HW223353   3.888   4.650   0.608  0.2415  1.0996 -0.6069
 6041SOL     MW23354   3.814   4.637   0.564  0.2704 -0.1221 -0.3341
 6042SOL     OW23355   4.726   0.459   0.498 -0.4825 -0.4621 -0.0927
 6042SOL    HW123356   4.736   0.510   0.578 -0.3993  1.6792 -1.3977
 6042SOL    HW223357   4.669   0.513   0.443 -0.9587 -2.1323 -1.2812
 6042SOL     MW23358   4.720   0.473   0.501 -0.5331 -0.4018 -0.4119
 6043SOL     OW23359   1.995   1.524   4.507 -0.9104  0.1951  0.1594
 6043SOL    HW123360   2.041   1.486   4.583  1.7468  0.3170 -1.3088
 6043SOL    HW223361   2.038   1.608   4.493 -2.0570  0.6166 -0.8931
 6043SOL     MW23362   2.007   1.530   4.515 -0.7167  0.2648 -0.1636
 6044SOL     OW23363   5.638   2.618   4.718  0.4393 -0.3747  0.1670
 6044SOL    HW123364   5.596   2.704   4.728 -0.7216 -0.8346 -0.7519
 6044SOL    HW223365   5.567   2.555   4.732  1.2096 -1.1842  0.4370
 6044SOL     MW23366   5.623   2.621   4.721  0.3896 -0.5372  0.0834
 6045SOL     OW23367   2.441   3.714   0.513  0.3154  0.4797  0.4953
 6045SOL    HW123368   2.504   3.704   0.584  0.3312 -0.3675  0.3648
 6045SOL    HW223369   2.490   3.760   0.445  0.6686  0.1962  0.5544
 6045SOL     MW23370   2.456   3.719   0.513  0.3624  0.3350  0.4861
 6046SOL     OW23371   0.305   0.446   4.438 -0.4488 -0.4820  1.1467
 6046SOL    HW123372   0.238   0.394   4.393 -1.0075  0.0697  1.3266
 6046SOL    HW223373   0.299   0.532   4.396  1.2284 -0.8587  0.0815
 6046SOL     MW23374   0.295   0.451   4.427 -0.3056 -0.4596  1.0333
 6047SOL     OW23375   4.696   0.961   5.370 -0.1872 -0.6183 -0.5376
 6047SOL    HW123376   4.724   0.874   5.342 -0.2169 -0.9199  0.3572
 6047SOL    HW223377   4.600   0.956   5.368 -0.2262 -1.3813  1.8162
 6047SOL     MW23378   4.687   0.949   5.366 -0.1960 -0.7547 -0.1221
 6048SOL     OW23379   5.181   3.680   0.121 -0.4361 -0.0124 -0.4359
 6048SOL    HW123380   5.233   3.703   0.198 -1.4647 -0.6297  0.4687
 6048SOL    HW223381   5.245   3.649   0.057  0.3793 -0.0403  0.3827
 6048SOL     MW23382   5.196   3.679   0.123 -0.4635 -0.0949 -0.2153
 6049SOL     OW23383   3.455   1.038   2.000 -0.4444  0.2923 -0.6988
 6049SOL    HW123384   3.472   1.082   2.083 -1.1893 -0.3694 -0.1810
 6049SOL    HW223385   3.505   0.956   2.006 -1.9001 -0.5929 -0.1253
 6049SOL     MW23386   3.463   1.033   2.012 -0.7257  0.0942 -0.5591
 6050SOL     OW23387   1.924   0.201   2.855 -0.1125 -0.5402 -0.3043
 6050SOL    HW123388   1.926   0.290   2.888 -0.3544 -0.0021 -1.7108
 6050SOL    HW223389   1.963   0.148   2.924 -0.4294  0.5898  0.7366
 6050SOL     MW23390   1.930   0.206   2.868 -0.1841 -0.3267 -0.3510
 6051SOL     OW23391   2.966   3.714   0.735  0.0331  0.6183 -0.0968
 6051SOL    HW123392   2.893   3.736   0.792  0.0934 -2.2295  1.1518
 6051SOL    HW223393   2.938   3.634   0.689  1.4326  0.8108 -1.3231
 6051SOL     MW23394   2.953   3.706   0.736  0.2201  0.2782 -0.0939
 6052SOL     OW23395   5.798   2.009   3.461  0.0401  0.9201  0.2949
 6052SOL    HW123396   5.892   2.005   3.439 -0.3276  0.1321 -1.2127
 6052SOL    HW223397   5.776   1.919   3.484 -0.3871  1.0656  0.4530
 6052SOL     MW23398   5.808   1.997   3.461 -0.0620  0.8378  0.1223
 6053SOL     OW23399   0.086   4.753   3.839  0.1157  0.2572  0.4358
 6053SOL    HW123400   0.090   4.841   3.876 -1.6097  0.1106  1.0132
 6053SOL    HW223401   0.017   4.709   3.888  0.1792 -1.0645 -0.6194
 6053SOL     MW23402   0.078   4.759   3.850 -0.0971  0.0687  0.3748
 6054SOL     OW23403   2.542   4.784   1.889  0.3324  0.4783 -0.4961
 6054SOL    HW123404   2.611   4.717   1.888 -0.1648 -0.0627  0.5677
 6054SOL    HW223405   2.465   4.738   1.923  0.8299  2.4032  3.4027
 6054SOL     MW23406   2.541   4.769   1.893  0.3324  0.6547  0.1392
 6055SOL     OW23407   3.275   5.959   3.162  0.3595 -0.1945  0.4019
 6055SOL    HW123408   3.328   5.880   3.147  1.1406  0.2138  0.9918
 6055SOL    HW223409   3.332   6.017   3.212 -0.2631  0.7003  0.0823
 6055SOL     MW23410   3.289   5.956   3.167  0.3796 -0.0277  0.4365
 6056SOL     OW23411   3.295   0.965   1.074 -0.0873 -0.2960 -0.0259
 6056SOL    HW123412   3.224   0.960   1.138 -1.1724 -0.5170 -1.2205
 6056SOL    HW223413   3.325   1.056   1.079 -1.5337  0.2409 -0.6193
 6056SOL     MW23414   3.290   0.976   1.083 -0.4113 -0.2555 -0.2548
 6057SOL     OW23415   3.547   2.091   2.067  0.3534 -0.3929  0.1959
 6057SOL    HW123416   3.451   2.087   2.073  0.1939  1.1128 -0.8900
 6057SOL    HW223417   3.569   2.177   2.104  1.2753 -0.6990  0.3518
 6057SOL     MW23418   3.537   2.102   2.072  0.4508 -0.2391  0.0770
 6058SOL     OW23419   1.982   0.687   0.364  0.8976  0.0690 -0.2325
 6058SOL    HW123420   1.977   0.642   0.448  0.6320 -1.0842 -0.8553
 6058SOL    HW223421   1.973   0.780   0.386 -0.9322 -0.3339  0.8448
 6058SOL     MW23422   1.980   0.693   0.378  0.6294 -0.1302 -0.1743
 6059SOL     OW23423   1.400   0.151   2.362 -0.0633  0.2449  0.2582
 6059SOL    HW123424   1.332   0.160   2.429 -1.6502 -2.7899 -0.8788
 6059SOL    HW223425   1.445   0.236   2.362 -1.9820  1.3237  3.0247
 6059SOL     MW23426   1.397   0.163   2.371 -0.5120 -0.0055  0.4668
 6060SOL     OW23427   3.835   3.549   2.584  0.3990 -0.0923 -0.0347
 6060SOL    HW123428   3.890   3.623   2.611 -2.5687  1.7093  1.3041
 6060SOL    HW223429   3.749   3.588   2.567 -0.8045 -3.0165 -0.9289
 6060SOL     MW23430   3.831   3.564   2.585 -0.1349 -0.2360  0.0219
 6061SOL     OW23431   3.362   4.133   1.139  0.2643  0.0078 -0.5717
 6061SOL    HW123432   3.282   4.177   1.168  0.3888  0.4058 -0.8171
 6061SOL    HW223433   3.341   4.040   1.141 -0.1244  0.0993 -0.3927
 6061SOL     MW23434   3.350   4.127   1.143  0.2306  0.0706 -0.5803
 6062SOL     OW23435   4.086   1.080   0.657 -0.0362  0.0421  0.5631
 6062SOL    HW123436   4.178   1.082   0.631  1.2871 -0.5543  4.8766
 6062SOL    HW223437   4.055   0.993   0.631  0.4301  0.4580 -1.4245
 6062SOL     MW23438   4.094   1.069   0.650  0.1926  0.0191  0.8608
 6063SOL     OW23439   5.222   1.478   0.520  0.7385  0.2665  0.2461
 6063SOL    HW123440   5.164   1.483   0.444  0.3260  3.1951  0.6784
 6063SOL    HW223441   5.291   1.541   0.500  2.5331 -1.5180  0.7676
 6063SOL     MW23442   5.223   1.487   0.508  0.9155  0.4131  0.3682
 6064SOL     OW23443   3.586   5.239   3.932  0.3464  0.2387 -0.8194
 6064SOL    HW123444   3.678   5.228   3.955  0.5770  3.3917  0.0611
 6064SOL    HW223445   3.587   5.261   3.839  0.3997 -0.3948 -0.9744
 6064SOL     MW23446   3.598   5.240   3.923  0.3829  0.5608 -0.7265
 6065SOL     OW23447   4.848   3.659   4.344 -0.1703  0.2587  0.3210
 6065SOL    HW123448   4.759   3.685   4.367 -0.6250 -1.3377  0.4093
 6065SOL    HW223449   4.899   3.674   4.424 -0.3460  1.2105  0.2557
 6065SOL     MW23450   4.843   3.664   4.357 -0.2508  0.1762  0.3233
 6066SOL     OW23451   3.247   0.537   3.457 -0.1675 -0.4746 -0.4313
 6066SOL    HW123452   3.276   0.509   3.370 -0.7356 -1.0672 -0.4305
 6066SOL    HW223453   3.309   0.606   3.482  1.2275 -1.7128 -0.4334
 6066SOL     MW23454   3.258   0.542   3.449 -0.0618 -0.7091 -0.4315
 6067SOL     OW23455   2.220   5.373   0.516  0.6351 -0.0442 -0.0329
 6067SOL    HW123456   2.159   5.302   0.532 -0.3068  0.9935  1.0706
 6067SOL    HW223457   2.265   5.385   0.599  1.0084  0.4517 -0.3040
 6067SOL     MW23458   2.218   5.366   0.528  0.5624  0.1526  0.0737
 6068SOL     OW23459   1.351   0.109   3.083  0.0857 -0.5187 -0.0281
 6068SOL    HW123460   1.297   0.063   3.020  0.1664 -1.6183  0.6936
 6068SOL    HW223461   1.429   0.134   3.035 -0.3662 -0.3182 -0.6605
 6068SOL     MW23462   1.354   0.106   3.069  0.0381 -0.6338 -0.0167
 6069SOL     OW23463   3.701   3.226   1.895  0.4053  0.0655  0.1462
 6069SOL    HW123464   3.776   3.204   1.950 -0.1516  0.0817  0.9117
 6069SOL    HW223465   3.653   3.292   1.945 -0.1889 -0.0351 -0.2930
 6069SOL     MW23466   3.705   3.232   1.908  0.2580  0.0548  0.1880
 6070SOL     OW23467   3.132   1.579   5.683 -0.2367  0.3532  0.0039
 6070SOL    HW123468   3.197   1.525   5.729 -0.4585 -0.3363 -0.4797
 6070SOL    HW223469   3.077   1.615   5.753  0.3138  0.4790  0.3772
 6070SOL     MW23470   3.134   1.577   5.698 -0.1945  0.2810 -0.0100
 6071SOL     OW23471   0.148   4.133   1.513  0.2965 -0.7979  0.3601
 6071SOL    HW123472   0.239   4.144   1.538  0.5419  0.4959 -0.9876
 6071SOL    HW223473   0.150   4.111   1.420 -0.8039  0.9148 -0.1004
 6071SOL     MW23474   0.160   4.132   1.504  0.1871 -0.4139  0.1286
 6072SOL     OW23475   1.300   5.811   5.411  0.1910  0.5631  0.3466
 6072SOL    HW123476   1.344   5.814   5.326 -2.7523 -2.0245 -1.3819
 6072SOL    HW223477   1.366   5.778   5.471  1.0336 -2.1192 -1.9515
 6072SOL     MW23478   1.314   5.807   5.407 -0.0778 -0.1116 -0.1693
 6073SOL     OW23479   4.928   4.215   0.785  0.6722 -0.3645  0.0752
 6073SOL    HW123480   4.978   4.297   0.787  2.7770 -1.5544 -1.5546
 6073SOL    HW223481   4.992   4.147   0.805 -1.1745 -1.6010  2.0596
 6073SOL     MW23482   4.943   4.217   0.788  0.7057 -0.6747  0.1206
 6074SOL     OW23483   4.666   0.280   2.580 -0.9169  0.2370  0.1864
 6074SOL    HW123484   4.578   0.257   2.549 -1.4037  0.0408  1.6667
 6074SOL    HW223485   4.653   0.308   2.671  0.4675  0.8332  0.2159
 6074SOL     MW23486   4.653   0.281   2.588 -0.8025  0.2882  0.3796
 6075SOL     OW23487   1.926   0.014   2.226 -0.1921 -0.1802 -0.0019
 6075SOL    HW123488   1.924  -0.035   2.144 -1.4563  3.5739 -2.3585
 6075SOL    HW223489   1.849  -0.016   2.275  1.2242 -3.2900  0.3956
 6075SOL     MW23490   1.916   0.004   2.222 -0.1726 -0.0978 -0.2527
 6076SOL     OW23491   4.948   4.801   0.915 -0.0847 -0.1457 -0.5733
 6076SOL    HW123492   5.033   4.769   0.944 -0.2665  0.0815  0.2307
 6076SOL    HW223493   4.945   4.780   0.822 -0.4264 -2.9300  0.0212
 6076SOL     MW23494   4.958   4.794   0.907 -0.1516 -0.4725 -0.3943
 6077SOL     OW23495   3.743   2.987   5.820 -0.1623  0.1401  0.1457
 6077SOL    HW123496   3.822   3.010   5.869  0.5099 -1.5392 -0.0955
 6077SOL    HW223497   3.671   3.022   5.873  0.7193  1.5268  0.4676
 6077SOL     MW23498   3.744   2.994   5.833  0.0365  0.1028  0.1559
 6078SOL     OW23499   3.735   1.346   5.523  0.3826  0.2741 -0.5359
 6078SOL    HW123500   3.805   1.294   5.484 -0.9808 -1.4337 -0.8129
 6078SOL    HW223501   3.718   1.305   5.608  1.8776  2.6616  0.9472
 6078SOL     MW23502   3.742   1.334   5.529  0.3991  0.3611 -0.3815
 6079SOL     OW23503   5.168   5.988   3.010  0.2604  0.2333 -0.0177
 6079SOL    HW123504   5.252   6.032   3.019 -0.0904  0.4610  2.4262
 6079SOL    HW223505   5.147   5.956   3.098 -2.0961 -0.0320 -0.6208
 6079SOL     MW23506   5.176   5.990   3.022 -0.0863  0.2285  0.2179
 6080SOL     OW23507   5.537   3.593   4.472 -0.3821 -0.2105 -0.2821
 6080SOL    HW123508   5.492   3.677   4.480 -2.9332 -1.4990 -0.6145
 6080SOL    HW223509   5.529   3.572   4.379 -0.2371 -1.0695 -0.0992
 6080SOL     MW23510   5.530   3.601   4.461 -0.6900 -0.4854 -0.3014
 6081SOL     OW23511   0.486   2.964   3.885  0.6331  0.1288 -0.1309
 6081SOL    HW123512   0.432   3.014   3.947  1.1819 -0.4117  0.7819
 6081SOL    HW223513   0.457   2.994   3.799  0.2270  1.2685  0.3951
 6081SOL     MW23514   0.475   2.975   3.882  0.6514  0.2053  0.0532
 6082SOL     OW23515   0.714   3.638   2.790 -0.3217  0.2234 -0.1541
 6082SOL    HW123516   0.692   3.618   2.699 -1.0980  1.0541 -0.1508
 6082SOL    HW223517   0.800   3.598   2.803 -0.1306  0.2529 -1.3013
 6082SOL     MW23518   0.722   3.630   2.780 -0.3966  0.3335 -0.3006
 6083SOL     OW23519   2.395   5.724   2.735  0.1940  0.0511 -0.0759
 6083SOL    HW123520   2.364   5.690   2.819  0.1895 -1.3506 -0.6327
 6083SOL    HW223521   2.387   5.819   2.743 -0.3744 -0.1023  1.2842
 6083SOL     MW23522   2.390   5.731   2.747  0.1204 -0.1478  0.0269
 6084SOL     OW23523   3.647   1.887   1.895 -0.3196 -0.2253 -0.1479
 6084SOL    HW123524   3.618   1.957   1.954  2.3854 -0.1201  1.1176
 6084SOL    HW223525   3.680   1.933   1.818  1.5594 -0.0602  0.7286
 6084SOL     MW23526   3.647   1.902   1.893  0.2670 -0.1907  0.1264
 6085SOL     OW23527   5.085   2.280   2.342  0.6612  0.1200  0.0694
 6085SOL    HW123528   5.061   2.285   2.250  1.7243  0.5374 -0.2051
 6085SOL    HW223529   5.004   2.259   2.388 -0.0894  0.9700 -0.8540
 6085SOL     MW23530   5.072   2.278   2.336  0.7010  0.2820 -0.0842
 6086SOL     OW23531   2.657   2.559   2.035  0.6079  0.2364 -0.8474
 6086SOL    HW123532   2.685   2.590   2.121 -1.4273  2.3496 -0.8653
 6086SOL    HW223533   2.721   2.597   1.974  2.0246 -1.2244 -0.2981
 6086SOL     MW23534   2.669   2.568   2.038  0.5288  0.3200 -0.7794
 6087SOL     OW23535   1.730   4.319   3.220 -1.0237  0.2453 -0.6980
 6087SOL    HW123536   1.755   4.412   3.221  0.9020 -0.1726 -3.6935
 6087SOL    HW223537   1.802   4.275   3.264 -2.4369  0.2333  1.6694
 6087SOL     MW23538   1.742   4.325   3.226 -0.9582  0.1903 -0.7782
 6088SOL     OW23539   1.390   5.957   0.762  0.4396 -0.5834  0.2092
 6088SOL    HW123540   1.443   6.019   0.713  1.6670 -0.8383  1.1854
 6088SOL    HW223541   1.306   5.954   0.715  1.8745 -1.5228 -2.3541
 6088SOL     MW23542   1.386   5.965   0.750  0.7805 -0.7362  0.0061
 6089SOL     OW23543   0.824   0.464   4.293 -0.5346 -0.0434 -0.0791
 6089SOL    HW123544   0.842   0.429   4.206 -2.2132  0.9495 -0.8422
 6089SOL    HW223545   0.872   0.406   4.352  1.9252  0.2388 -1.7473
 6089SOL     MW23546   0.833   0.452   4.290 -0.4346  0.1198 -0.3905
 6090SOL     OW23547   2.147   2.451   2.905 -0.4147 -0.4398 -0.0860
 6090SOL    HW123548   2.156   2.382   2.970  2.4828  0.4735  0.5444
 6090SOL    HW223549   2.088   2.514   2.945  0.7556 -0.2439  1.3524
 6090SOL     MW23550   2.141   2.450   2.919  0.1061 -0.2978  0.1793
 6091SOL     OW23551   3.913   1.631   0.016  0.6572 -0.3678  0.7929
 6091SOL    HW123552   3.819   1.641   0.027  0.6001 -1.1354  1.0838
 6091SOL    HW223553   3.941   1.583   0.095  1.3512  0.2266  0.9135
 6091SOL     MW23554   3.905   1.626   0.028  0.7386 -0.3901  0.8454
 6092SOL     OW23555   4.815   3.017   3.620 -0.2513 -0.0330 -0.2639
 6092SOL    HW123556   4.860   3.098   3.640  0.4433 -0.7649  1.2046
 6092SOL    HW223557   4.784   3.028   3.530  0.7902  1.4081 -0.4542
 6092SOL     MW23558   4.816   3.029   3.611 -0.0296  0.0579 -0.1001
 6093SOL     OW23559   5.264   5.144   2.502 -0.1853  0.1623  0.5098
 6093SOL    HW123560   5.205   5.219   2.491  0.5039  0.6634  0.1579
 6093SOL    HW223561   5.330   5.155   2.433 -0.0308 -0.7269  0.5071
 6093SOL     MW23562   5.265   5.155   2.491 -0.0772  0.1130  0.4644
 6094SOL     OW23563   5.174   0.828   3.209 -0.8723 -0.3237 -0.5498
 6094SOL    HW123564   5.128   0.772   3.271 -0.7684 -0.1799 -0.3432
 6094SOL    HW223565   5.169   0.781   3.126  0.9306 -1.5858  0.0227
 6094SOL     MW23566   5.167   0.815   3.206 -0.6280 -0.4668 -0.4497
 6095SOL     OW23567   3.875   1.496   1.512 -0.7904  0.1724  0.5602
 6095SOL    HW123568   3.785   1.470   1.492 -0.9938 -0.1179  1.8088
 6095SOL    HW223569   3.889   1.575   1.460 -2.2354  0.9834  1.3719
 6095SOL     MW23570   3.865   1.503   1.503 -1.0014  0.2391  0.8240
 6096SOL     OW23571   5.547   2.333   4.394 -0.1127  0.2296  0.1520
 6096SOL    HW123572   5.501   2.350   4.312 -0.6456  0.6518  0.5327
 6096SOL    HW223573   5.635   2.308   4.367 -0.1328  0.8662 -0.5399
 6096SOL     MW23574   5.553   2.332   4.380 -0.1836  0.3653  0.1121
 6097SOL     OW23575   5.217   0.636   3.473  0.2837  0.0869  0.3598
 6097SOL    HW123576   5.288   0.597   3.422 -0.3010 -0.1346 -0.2900
 6097SOL    HW223577   5.260   0.668   3.552  1.0215 -0.5411  0.2261
 6097SOL     MW23578   5.232   0.635   3.477  0.3033 -0.0218  0.2594
 6098SOL     OW23579   5.765   1.602   0.192 -0.8281  0.5592  0.0924
 6098SOL    HW123580   5.768   1.556   0.108  0.4199 -0.2694  0.5820
 6098SOL    HW223581   5.751   1.694   0.169 -0.8463  0.2926 -0.9944
 6098SOL     MW23582   5.763   1.608   0.179 -0.6709  0.4190  0.0160
 6099SOL     OW23583   0.057   2.666   2.927 -0.1115 -0.1772 -0.1984
 6099SOL    HW123584  -0.022   2.622   2.959  0.1117  0.9932  2.0822
 6099SOL    HW223585   0.128   2.629   2.980  0.6022  0.1925 -0.8940
 6099SOL     MW23586   0.056   2.656   2.938  0.0084  0.0200  0.0045
 6100SOL     OW23587   1.634   2.800   3.338  0.2835 -0.7442  0.3217
 6100SOL    HW123588   1.544   2.785   3.368  0.4133 -0.7746  0.6909
 6100SOL    HW223589   1.689   2.784   3.415  0.4071  2.0635  0.8732
 6100SOL     MW23590   1.630   2.796   3.352  0.3159 -0.3886  0.4396
 6101SOL     OW23591   4.164   1.017   3.395 -0.0688  0.3727 -0.1853
 6101SOL    HW123592   4.212   0.945   3.436  1.9830  1.3355 -0.8201
 6101SOL    HW223593   4.192   1.095   3.443 -1.7102  0.8585  0.0166
 6101SOL     MW23594   4.174   1.018   3.407 -0.0162  0.5581 -0.2408
 6102SOL     OW23595   0.270   0.215   1.014  0.1560  0.0951 -0.3936
 6102SOL    HW123596   0.276   0.121   1.000  0.7403  0.1637 -0.6143
 6102SOL    HW223597   0.322   0.232   1.093  1.6296  0.4747 -1.4176
 6102SOL     MW23598   0.277   0.205   1.022  0.4194  0.1525 -0.5528
 6103SOL     OW23599   5.610   3.426   0.139  0.3525 -0.2260  0.1702
 6103SOL    HW123600   5.648   3.504   0.100 -0.3441 -0.3936 -0.8886
 6103SOL    HW223601   5.589   3.451   0.229 -1.3740  1.3406 -0.6346
 6103SOL     MW23602   5.612   3.439   0.145  0.0424 -0.0470 -0.0684
 6104SOL     OW23603   5.317   3.021   3.309 -0.1116 -0.3319  0.1041
 6104SOL    HW123604   5.228   3.026   3.342 -0.2522  1.1439 -0.4143
 6104SOL    HW223605   5.358   3.102   3.340  0.2745  0.2232 -1.7611
 6104SOL     MW23606   5.311   3.032   3.317 -0.0806 -0.0720 -0.2010
 6105SOL     OW23607   1.665   3.443   2.300  0.6535 -0.2207  0.3195
 6105SOL    HW123608   1.609   3.519   2.288  0.5287 -0.3403  0.1322
 6105SOL    HW223609   1.754   3.477   2.293  0.5859 -0.2234 -0.6160
 6105SOL     MW23610   1.669   3.457   2.297  0.6289 -0.2363  0.1757
 6106SOL     OW23611   3.011   5.386   0.178  0.3121  0.0334 -0.8807
 6106SOL    HW123612   2.996   5.313   0.238 -0.5517 -0.0320 -1.1692
 6106SOL    HW223613   3.032   5.344   0.094 -0.5385  0.1038 -1.1361
 6106SOL     MW23614   3.012   5.371   0.175  0.0927  0.0339 -0.9503
 6107SOL     OW23615   5.457   0.822   2.023  0.4869 -0.2271 -0.2263
 6107SOL    HW123616   5.477   0.791   1.935 -0.2327 -0.6674 -0.2339
 6107SOL    HW223617   5.407   0.903   2.009 -1.0862 -1.1949 -0.2384
 6107SOL     MW23618   5.454   0.829   2.010  0.1931 -0.4073 -0.2286
 6108SOL     OW23619   5.700   1.640   5.421  0.0815 -0.2630  0.3826
 6108SOL    HW123620   5.610   1.651   5.451  0.1312  0.4855  0.2730
 6108SOL    HW223621   5.734   1.730   5.414  0.9629 -0.5509  0.8216
 6108SOL     MW23622   5.693   1.653   5.424  0.2007 -0.2042  0.4244
 6109SOL     OW23623   2.133   5.036   4.184 -0.3498 -0.3212 -0.0252
 6109SOL    HW123624   2.104   5.114   4.137 -0.0340 -0.2429 -0.0963
 6109SOL    HW223625   2.080   5.035   4.264 -2.2351 -1.5035 -1.2585
 6109SOL     MW23626   2.123   5.046   4.189 -0.5510 -0.4621 -0.1922
 6110SOL     OW23627   3.213   1.947   5.537 -0.3966  0.3364 -0.2765
 6110SOL    HW123628   3.196   1.995   5.455 -1.3531 -0.9301 -0.8357
 6110SOL    HW223629   3.127   1.942   5.579  0.3232  2.1125  1.4476
 6110SOL     MW23630   3.200   1.953   5.532 -0.4270  0.4016 -0.1273
 6111SOL     OW23631   2.910   4.840   2.127  0.3077  0.1083 -0.2402
 6111SOL    HW123632   2.928   4.746   2.132  0.1589  0.0807 -0.2239
 6111SOL    HW223633   2.814   4.846   2.130  0.3702  0.3957  1.8532
 6111SOL     MW23634   2.900   4.829   2.128  0.2966  0.1416  0.0298
 6112SOL     OW23635   3.042   4.174   4.669  0.1506  0.2965 -0.5015
 6112SOL    HW123636   3.054   4.241   4.737 -1.0085  2.1793 -2.1154
 6112SOL    HW223637   2.963   4.128   4.696  0.5486  0.0327  0.2366
 6112SOL     MW23638   3.034   4.177   4.681  0.0529  0.5040 -0.6127
 6113SOL     OW23639   2.821   4.744   4.664  0.4467  0.4693  0.4159
 6113SOL    HW123640   2.882   4.673   4.641  0.6306  0.3881  1.1569
 6113SOL    HW223641   2.878   4.819   4.681  0.2223  0.9840 -0.9889
 6113SOL     MW23642   2.836   4.745   4.663  0.4418  0.5255  0.3309
 6114SOL     OW23643   5.569   5.993   5.153 -0.4141 -0.4840 -0.2355
 6114SOL    HW123644   5.594   5.970   5.242  2.8788 -0.2329 -1.0372
 6114SOL    HW223645   5.604   6.081   5.140  0.1207 -0.9512 -2.1278
 6114SOL     MW23646   5.577   6.001   5.163  0.0758 -0.5112 -0.5803
 6115SOL     OW23647   2.315   5.983   0.857 -0.7829 -0.2015 -0.0236
 6115SOL    HW123648   2.307   6.006   0.950 -0.8293 -0.4118  0.0251
 6115SOL    HW223649   2.243   5.921   0.842  0.4663 -1.7516  0.2908
 6115SOL     MW23650   2.304   5.978   0.867 -0.6287 -0.4269  0.0229
 6116SOL     OW23651   4.077   5.009   1.568 -0.1279 -0.2636  0.3772
 6116SOL    HW123652   4.134   4.949   1.519 -0.9228  0.0131 -0.8982
 6116SOL    HW223653   4.002   5.024   1.511 -1.0179  0.1736  1.6338
 6116SOL     MW23654   4.075   5.004   1.554 -0.3438 -0.1721  0.3748
 6117SOL     OW23655   4.999   3.738   4.109 -0.2272  0.5674  0.1680
 6117SOL    HW123656   4.937   3.770   4.043  0.2049  0.1856 -0.4299
 6117SOL    HW223657   4.944   3.710   4.182 -0.7188  0.8534 -0.0876
 6117SOL     MW23658   4.984   3.739   4.110 -0.2351  0.5550  0.0587
 6118SOL     OW23659   5.312   4.607   2.017 -0.2082  0.2391  0.1760
 6118SOL    HW123660   5.334   4.700   2.025  1.1036 -0.2087  1.9882
 6118SOL    HW223661   5.232   4.596   2.069 -0.9282  0.5248 -0.8482
 6118SOL     MW23662   5.304   4.617   2.024 -0.1321  0.2184  0.2768
 6119SOL     OW23663   5.089   4.431   1.090  0.7246 -0.7290  0.2145
 6119SOL    HW123664   5.063   4.406   1.179  1.5724 -1.7772  0.1797
 6119SOL    HW223665   5.154   4.365   1.065 -0.9525 -1.6363 -1.9393
 6119SOL     MW23666   5.094   4.419   1.098  0.6180 -0.9789 -0.0658
 6120SOL     OW23667   4.046   4.252   1.619 -0.1911  0.1117 -0.0197
 6120SOL    HW123668   4.074   4.317   1.556  1.6009  0.8355  1.4666
 6120SOL    HW223669   4.124   4.197   1.633 -1.3467 -1.6913 -0.4310
 6120SOL     MW23670   4.060   4.253   1.613 -0.1092 -0.0267  0.1178
 6121SOL     OW23671   4.031   2.384   2.842  0.1344 -0.1259 -0.0590
 6121SOL    HW123672   3.997   2.318   2.903  0.2610  0.0673  0.2215
 6121SOL    HW223673   4.061   2.455   2.898  0.9311 -0.2642 -0.3117
 6121SOL     MW23674   4.030   2.384   2.857  0.2527 -0.1194 -0.0556
 6122SOL     OW23675   4.268   3.302   2.235  0.9670 -0.1307 -0.7321
 6122SOL    HW123676   4.287   3.323   2.326  0.7910 -1.6372 -0.3436
 6122SOL    HW223677   4.348   3.262   2.202  0.5547 -0.8646 -0.8434
 6122SOL     MW23678   4.281   3.300   2.242  0.8922 -0.4175 -0.6967
 6123SOL     OW23679   2.799   3.630   2.866  0.5888 -0.0456  0.8285
 6123SOL    HW123680   2.714   3.586   2.858  1.1120 -0.7364 -1.5041
 6123SOL    HW223681   2.778   3.723   2.856  0.1534 -0.2630 -0.4940
 6123SOL     MW23682   2.785   3.636   2.863  0.5999 -0.1619  0.3607
 6124SOL     OW23683   2.947   5.291   4.807  0.0217  0.4734 -0.1380
 6124SOL    HW123684   2.871   5.338   4.771  0.1479 -0.0245 -1.0763
 6124SOL    HW223685   3.018   5.310   4.746  0.1729 -0.5963 -0.3185
 6124SOL     MW23686   2.946   5.299   4.794  0.0572  0.2728 -0.2813
 6125SOL     OW23687   3.685   4.942   2.732 -0.3097 -0.5356  0.0160
 6125SOL    HW123688   3.685   4.850   2.706 -1.0505 -0.4937 -0.1306
 6125SOL    HW223689   3.778   4.966   2.734 -0.1344 -1.1775 -0.3262
 6125SOL     MW23690   3.697   4.933   2.729 -0.3822 -0.6123 -0.0463
 6126SOL     OW23691   2.310   3.274   3.372 -0.3811  0.1139 -0.0236
 6126SOL    HW123692   2.305   3.210   3.443  1.6848  0.8225  0.7824
 6126SOL    HW223693   2.224   3.268   3.330 -2.1472  0.6087  3.3088
 6126SOL     MW23694   2.298   3.265   3.376 -0.3426  0.2682  0.5062
 6127SOL     OW23695   5.860   2.806   4.140 -0.2276 -0.4155 -0.2536
 6127SOL    HW123696   5.779   2.815   4.091  0.1182  1.2772 -0.5655
 6127SOL    HW223697   5.844   2.734   4.201 -2.6950  1.2057  1.0919
 6127SOL     MW23698   5.848   2.798   4.142 -0.4992  0.0088 -0.1211
 6128SOL     OW23699   3.632   4.546   1.173 -0.4418  0.0779 -0.1084
 6128SOL    HW123700   3.627   4.639   1.152  2.0033  0.5049  0.9802
 6128SOL    HW223701   3.579   4.537   1.253  0.3458  0.7807  0.4989
 6128SOL     MW23702   3.624   4.557   1.181 -0.0279  0.2227  0.1087
 6129SOL     OW23703   3.272   2.184   4.724  0.1347  0.7905 -0.1221
 6129SOL    HW123704   3.332   2.199   4.651  0.1966  1.4410  0.0518
 6129SOL    HW223705   3.201   2.133   4.686  0.6624  0.2547 -0.3953
 6129SOL     MW23706   3.270   2.180   4.710  0.2100  0.8051 -0.1349
 6130SOL     OW23707   0.466   5.791   2.645 -0.0595  0.3104 -0.0264
 6130SOL    HW123708   0.385   5.788   2.594  0.2244  0.8437 -0.5247
 6130SOL    HW223709   0.458   5.719   2.707 -0.0399 -0.9368 -1.4171
 6130SOL     MW23710   0.455   5.781   2.646 -0.0207  0.2189 -0.2685
 6131SOL     OW23711   3.817   0.210   1.405  0.3695  0.0189 -0.6385
 6131SOL    HW123712   3.877   0.136   1.415 -1.5572 -1.4929  0.1898
 6131SOL    HW223713   3.772   0.194   1.322 -0.1005  0.2105 -0.4249
 6131SOL     MW23714   3.819   0.199   1.396  0.0627 -0.1501 -0.5052
 6132SOL     OW23715   3.882   2.754   1.723 -0.1259  0.0856 -0.0562
 6132SOL    HW123716   3.923   2.793   1.646 -0.5979  1.2322  0.2698
 6132SOL    HW223717   3.902   2.661   1.715  0.7334  0.3351 -1.0098
 6132SOL     MW23718   3.890   2.747   1.712 -0.0763  0.2642 -0.1365
 6133SOL     OW23719   4.912   1.796   0.026 -0.3604 -0.1205  0.7491
 6133SOL    HW123720   4.865   1.860   0.077 -0.9637  0.2981 -0.3197
 6133SOL    HW223721   4.924   1.837  -0.060  0.5090 -0.8589  0.5037
 6133SOL     MW23722   4.908   1.809   0.021 -0.3266 -0.1615  0.5808
 6134SOL     OW23723   2.132   1.361   3.065 -0.3546 -0.1411 -0.1223
 6134SOL    HW123724   2.222   1.348   3.037  0.1923  1.7127  0.6731
 6134SOL    HW223725   2.139   1.398   3.153 -1.9442 -1.8151  0.7434
 6134SOL     MW23726   2.144   1.364   3.072 -0.4878 -0.1180  0.0906
 6135SOL     OW23727   3.077   1.616   4.031  0.2127 -0.8465 -0.5166
 6135SOL    HW123728   3.154   1.563   4.009 -0.0828 -1.4186 -0.1734
 6135SOL    HW223729   3.085   1.694   3.975 -0.1181 -1.9233 -2.0982
 6135SOL     MW23730   3.088   1.619   4.021  0.1328 -1.0577 -0.6752
 6136SOL     OW23731   5.914   1.854   4.751 -0.4184  0.3221  0.5496
 6136SOL    HW123732   5.923   1.925   4.688 -0.0733 -0.1151  0.0984
 6136SOL    HW223733   5.993   1.859   4.804 -0.5605  0.4942  0.7466
 6136SOL     MW23734   5.925   1.863   4.750 -0.3920  0.2882  0.5174
 6137SOL     OW23735   2.164   5.761   0.927  0.0060  0.1020  0.1007
 6137SOL    HW123736   2.078   5.777   0.888  0.7195  2.3102 -0.6500
 6137SOL    HW223737   2.152   5.778   1.020  0.2319  3.1000 -0.3836
 6137SOL     MW23738   2.152   5.765   0.934  0.1264  0.7687 -0.0574
 6138SOL     OW23739   0.823   2.765   1.309  0.2522  0.0166  0.4126
 6138SOL    HW123740   0.741   2.809   1.287 -0.4732 -2.0535 -1.1729
 6138SOL    HW223741   0.851   2.805   1.391 -0.7410  2.9008 -0.6196
 6138SOL     MW23742   0.816   2.776   1.316  0.0322  0.1209  0.0776
 6139SOL     OW23743   1.642   3.805   0.686 -0.7243 -0.6010 -0.1916
 6139SOL    HW123744   1.574   3.754   0.730 -0.4051 -0.9847 -0.1303
 6139SOL    HW223745   1.606   3.825   0.600 -0.8974 -0.8421 -0.1759
 6139SOL     MW23746   1.629   3.801   0.681 -0.7055 -0.6812 -0.1818
 6140SOL     OW23747   5.179   1.726   1.159  0.2803 -0.8011  0.2138
 6140SOL    HW123748   5.096   1.743   1.116  0.8268 -2.9073 -1.7777
 6140SOL    HW223749   5.209   1.643   1.122  3.2627 -0.1082  0.9065
 6140SOL     MW23750   5.172   1.717   1.149  0.7319 -0.9819  0.0474
 6141SOL     OW23751   5.216   5.858   3.785  0.6100 -0.2416  0.5540
 6141SOL    HW123752   5.156   5.873   3.858  0.0021 -0.3882  0.0935
 6141SOL    HW223753   5.186   5.776   3.746 -0.1006  0.6600 -0.8500
 6141SOL     MW23754   5.205   5.850   3.789  0.4411 -0.1454  0.3150
 6142SOL     OW23755   1.153   0.136   2.517 -0.0377  0.7497 -0.6839
 6142SOL    HW123756   1.100   0.117   2.593  1.0758 -1.1635 -0.3509
 6142SOL    HW223757   1.095   0.123   2.442 -0.6025  0.7662 -0.2460
 6142SOL     MW23758   1.139   0.132   2.517  0.0325  0.5069 -0.5851
 6143SOL     OW23759   5.473   3.965   4.067 -0.2456 -0.8779 -0.2003
 6143SOL    HW123760   5.486   4.021   3.991 -1.6918  0.1500  0.2810
 6143SOL    HW223761   5.419   3.893   4.035 -1.4240 -0.0956 -0.0200
 6143SOL     MW23762   5.468   3.963   4.053 -0.5813 -0.6461 -0.1159
 6144SOL     OW23763   0.279   2.340   0.310  0.2943  0.2919  0.2037
 6144SOL    HW123764   0.281   2.251   0.276 -0.6615  0.7200 -1.0022
 6144SOL    HW223765   0.369   2.357   0.338  0.5138 -0.9870  0.2794
 6144SOL     MW23766   0.291   2.331   0.309  0.2001  0.1829  0.0590
 6145SOL     OW23767   3.496   4.511   4.542 -0.0305 -0.4770 -0.0822
 6145SOL    HW123768   3.526   4.421   4.526 -1.8424 -1.7055  2.9716
 6145SOL    HW223769   3.560   4.547   4.604 -0.1643 -0.1946 -0.1097
 6145SOL     MW23770   3.508   4.504   4.548 -0.2797 -0.5984  0.3057
 6146SOL     OW23771   5.607   0.943   3.237  0.3333 -0.0634 -0.6854
 6146SOL    HW123772   5.540   0.882   3.267  0.4470 -1.1337 -2.5122
 6146SOL    HW223773   5.636   0.907   3.153  3.6434  0.0551  0.3391
 6146SOL     MW23774   5.602   0.931   3.230  0.7715 -0.1852 -0.7880
 6147SOL     OW23775   5.361   2.349   1.998  0.1782 -0.8973 -0.0853
 6147SOL    HW123776   5.393   2.306   2.077 -0.9560  0.5441  1.1789
 6147SOL    HW223777   5.272   2.379   2.020  0.1520  0.2505 -1.6176
 6147SOL     MW23778   5.353   2.347   2.011  0.0296 -0.5658 -0.1199
 6148SOL     OW23779   5.595   1.140   2.794 -0.0004 -0.0959 -0.8427
 6148SOL    HW123780   5.568   1.221   2.837 -0.1538 -0.0514 -1.0193
 6148SOL    HW223781   5.550   1.142   2.709 -2.5169 -1.8483  0.3919
 6148SOL     MW23782   5.586   1.151   2.789 -0.3428 -0.3146 -0.7071
 6149SOL     OW23783   0.328   5.939   5.317  0.1203  0.1485 -0.5544
 6149SOL    HW123784   0.315   5.977   5.230  1.1493  0.5292 -0.5533
 6149SOL    HW223785   0.416   5.967   5.342  1.2776 -3.0021 -0.9367
 6149SOL     MW23786   0.338   5.948   5.309  0.4002 -0.2060 -0.6027
 6150SOL     OW23787   0.293   3.262   1.943 -0.7813 -0.3205  0.3960
 6150SOL    HW123788   0.237   3.331   1.977 -0.3363 -0.6342  1.7764
 6150SOL    HW223789   0.233   3.189   1.926 -1.1137  0.0892 -0.2270
 6150SOL     MW23790   0.278   3.261   1.945 -0.7669 -0.3083  0.4930
 6151SOL     OW23791   2.128   3.582   3.168 -0.2772 -0.4939 -0.2437
 6151SOL    HW123792   2.060   3.529   3.211 -1.0707  0.4429 -0.3243
 6151SOL    HW223793   2.187   3.608   3.238 -1.0791  0.2963  0.1403
 6151SOL     MW23794   2.127   3.578   3.182 -0.4814 -0.2728 -0.2048
 6152SOL     OW23795   0.727   1.092   2.865  0.6640  0.6464  0.1302
 6152SOL    HW123796   0.789   1.105   2.793  1.3775  2.2275  0.9881
 6152SOL    HW223797   0.697   1.181   2.886  0.3314  0.1930  1.6361
 6152SOL     MW23798   0.731   1.105   2.859  0.7128  0.7907  0.4325
 6153SOL     OW23799   2.468   2.943   0.372 -0.1116 -0.0079 -0.0220
 6153SOL    HW123800   2.484   3.032   0.339 -0.1519 -0.1598 -0.4475
 6153SOL    HW223801   2.375   2.927   0.355  0.0118 -0.3256 -0.4160
 6153SOL     MW23802   2.458   2.952   0.366 -0.1011 -0.0679 -0.1269
 6154SOL     OW23803   3.501   4.675   1.874  0.1649  0.3289  0.7565
 6154SOL    HW123804   3.473   4.592   1.834  0.9387  0.1742  0.5193
 6154SOL    HW223805   3.466   4.742   1.816 -0.4226  0.1641  0.9196
 6154SOL     MW23806   3.493   4.673   1.861  0.1888  0.2875  0.7472
 6155SOL     OW23807   5.171   2.747   2.553 -0.3405  0.2703 -0.1136
 6155SOL    HW123808   5.184   2.841   2.542  2.9933  0.1442  2.0157
 6155SOL    HW223809   5.190   2.731   2.645 -3.4266 -2.1421  0.1719
 6155SOL     MW23810   5.175   2.757   2.563 -0.3090 -0.0546  0.1957
 6156SOL     OW23811   5.624   2.468   2.792  0.7613 -0.1038  0.3965
 6156SOL    HW123812   5.618   2.373   2.802  1.6687 -0.1872  0.2045
 6156SOL    HW223813   5.697   2.493   2.848 -0.4247  0.6829  1.6136
 6156SOL     MW23814   5.633   2.459   2.800  0.7257 -0.0138  0.5276
 6157SOL     OW23815   1.806   0.261   1.842 -0.0102 -0.4255  0.4706
 6157SOL    HW123816   1.781   0.293   1.755 -1.1689 -0.5348  0.7485
 6157SOL    HW223817   1.884   0.312   1.865 -1.2574  1.5466  0.4841
 6157SOL     MW23818   1.813   0.272   1.834 -0.3183 -0.1870  0.5081
 6158SOL     OW23819   0.285   0.867   1.256 -0.2377  0.0340 -0.1659
 6158SOL    HW123820   0.274   0.953   1.215  0.5437  0.2492  0.0765
 6158SOL    HW223821   0.196   0.834   1.265 -0.4738  0.3107 -1.3366
 6158SOL     MW23822   0.272   0.874   1.252 -0.1679  0.0970 -0.2847
 6159SOL     OW23823   3.302   3.586   5.810 -0.7383  0.1924 -0.0891
 6159SOL    HW123824   3.356   3.514   5.778 -2.0358  0.2847 -2.5898
 6159SOL    HW223825   3.212   3.555   5.799 -1.2790  1.6520  0.1461
 6159SOL     MW23826   3.298   3.573   5.804 -0.9737  0.3910 -0.3791
 6160SOL     OW23827   0.669   2.008   1.603  0.1990 -0.5732 -0.3765
 6160SOL    HW123828   0.754   2.032   1.567 -0.7796 -0.4640 -2.6945
 6160SOL    HW223829   0.644   2.084   1.656  0.3965  0.5179 -1.7932
 6160SOL     MW23830   0.677   2.021   1.605  0.0990 -0.4196 -0.8545
 6161SOL     OW23831   1.473   0.686   3.925 -0.1764  0.5768 -0.4147
 6161SOL    HW123832   1.509   0.723   4.006 -0.4126 -0.4096  0.1510
 6161SOL    HW223833   1.383   0.720   3.921 -0.4708 -0.0998  0.2269
 6161SOL     MW23834   1.466   0.695   3.935 -0.2443  0.3639 -0.2604
 6162SOL     OW23835   3.457   2.058   5.340  0.3183 -0.0593  0.8172
 6162SOL    HW123836   3.399   2.107   5.281  0.9553  0.1886  0.3949
 6162SOL    HW223837   3.435   1.966   5.325  0.5591 -0.0020  0.1098
 6162SOL     MW23838   3.447   2.053   5.331  0.4306 -0.0203  0.6728
 6163SOL     OW23839   4.582   5.174   5.151 -0.0805 -0.3985 -0.0229
 6163SOL    HW123840   4.555   5.100   5.206 -1.0725 -0.8764 -1.1359
 6163SOL    HW223841   4.600   5.245   5.213 -1.0034 -0.9845  0.9318
 6163SOL     MW23842   4.581   5.173   5.166 -0.3252 -0.5341 -0.0429
 6164SOL     OW23843   5.034   2.275   5.362 -0.4130 -0.8319  0.4640
 6164SOL    HW123844   5.048   2.331   5.286 -2.4527  0.2293  0.8232
 6164SOL    HW223845   4.991   2.197   5.327  1.5325 -1.7633  0.1033
 6164SOL     MW23846   5.030   2.272   5.348 -0.4249 -0.8154  0.4640
 6165SOL     OW23847   1.382   0.061   1.519  0.0462  0.4951  0.1437
 6165SOL    HW123848   1.362   0.154   1.531  1.6123  0.9358 -0.5035
 6165SOL    HW223849   1.478   0.057   1.523 -0.0805 -1.3623  2.0194
 6165SOL     MW23850   1.392   0.072   1.521  0.2304  0.3137  0.3009
 6166SOL     OW23851   0.570   0.549   0.026  0.4852 -0.0314  0.1365
 6166SOL    HW123852   0.519   0.621   0.065 -1.0538 -0.5012 -0.9630
 6166SOL    HW223853   0.567   0.567  -0.068  2.2370 -0.1606  0.0513
 6166SOL     MW23854   0.563   0.561   0.019  0.5124 -0.1081 -0.0152
 6167SOL     OW23855   5.628   2.171   1.116  0.1248  0.2002  0.3447
 6167SOL    HW123856   5.547   2.181   1.065  0.4325  0.0720 -0.1751
 6167SOL    HW223857   5.698   2.186   1.053  0.5010  1.8914  1.1306
 6167SOL     MW23858   5.626   2.174   1.101  0.2127  0.4003  0.3787
 6168SOL     OW23859   0.889   5.282   2.061 -0.3532  0.0133  0.1032
 6168SOL    HW123860   0.867   5.259   1.971  0.7026 -1.4628  0.2077
 6168SOL    HW223861   0.817   5.338   2.090 -0.8573  0.2449 -1.5480
 6168SOL     MW23862   0.877   5.287   2.053 -0.2826 -0.1459 -0.0947
 6169SOL     OW23863   2.154   2.173   4.476  0.1650  0.2990  0.0877
 6169SOL    HW123864   2.186   2.085   4.495  1.1318  0.7877  0.7524
 6169SOL    HW223865   2.231   2.222   4.448 -0.3964  0.8975 -0.4535
 6169SOL     MW23866   2.168   2.168   4.475  0.2170  0.4380  0.1030
 6170SOL     OW23867   2.592   0.779   2.070  0.6666  0.4833 -0.5173
 6170SOL    HW123868   2.601   0.687   2.045  1.9312 -0.1390  2.0472
 6170SOL    HW223869   2.655   0.825   2.014  2.1170 -0.6132  0.1778
 6170SOL     MW23870   2.601   0.773   2.059  1.0142  0.2632 -0.1001
 6171SOL     OW23871   1.130   2.956   3.888  0.0813  0.6158 -0.4807
 6171SOL    HW123872   1.201   2.997   3.937  0.1139 -2.2043  1.9876
 6171SOL    HW223873   1.064   2.934   3.954 -0.3094 -2.4111 -1.7843
 6171SOL     MW23874   1.130   2.958   3.903  0.0355 -0.1330 -0.3316
 6172SOL     OW23875   2.476   1.928   2.551 -0.2111  0.1740 -0.0931
 6172SOL    HW123876   2.449   1.879   2.629  0.8653 -1.5146 -0.7400
 6172SOL    HW223877   2.400   1.981   2.528 -1.2563 -0.8633  0.8975
 6172SOL     MW23878   2.463   1.928   2.558 -0.2072 -0.1750 -0.0494
 6173SOL     OW23879   3.407   2.971   3.832 -0.0164  0.5380 -0.2156
 6173SOL    HW123880   3.405   2.907   3.904  1.5124 -0.2199 -0.8258
 6173SOL    HW223881   3.416   2.918   3.753  1.8767  1.5082 -0.6849
 6173SOL     MW23882   3.408   2.956   3.831  0.4218  0.5653 -0.3538
 6174SOL     OW23883   5.038   3.552   3.851  0.0224  0.4073 -0.2950
 6174SOL    HW123884   5.069   3.514   3.769  0.8315 -0.7021  0.5005
 6174SOL    HW223885   4.983   3.625   3.825 -0.7418 -0.7083 -1.8508
 6174SOL     MW23886   5.035   3.557   3.837  0.0281  0.1225 -0.3922
 6175SOL     OW23887   5.240   3.648   4.256  0.2849 -0.4068  0.0116
 6175SOL    HW123888   5.198   3.706   4.319 -0.0857 -1.1155  0.4198
 6175SOL    HW223889   5.250   3.565   4.302  0.4138 -0.8017 -0.7137
 6175SOL     MW23890   5.236   3.645   4.270  0.2542 -0.5481 -0.0291
 6176SOL     OW23891   3.811   1.387   3.183  0.3629 -0.1827 -0.9570
 6176SOL    HW123892   3.738   1.338   3.220  0.7978  0.3659  0.6865
 6176SOL    HW223893   3.797   1.477   3.212  1.0103  0.1639 -1.6834
 6176SOL     MW23894   3.800   1.392   3.191  0.5016 -0.0681 -0.8397
 6177SOL     OW23895   0.318   2.579   5.018  0.1546  0.0034  0.2914
 6177SOL    HW123896   0.402   2.614   4.987  0.4926 -1.2035 -0.1663
 6177SOL    HW223897   0.281   2.536   4.941 -0.2271 -0.7079  0.8712
 6177SOL     MW23898   0.324   2.578   5.004  0.1490 -0.2422  0.3071
 6178SOL     OW23899   2.098   5.051   1.509  0.1318 -0.1546 -0.4728
 6178SOL    HW123900   2.174   5.009   1.548 -0.6013 -0.2923  0.8382
 6178SOL    HW223901   2.128   5.139   1.488  0.6589 -0.1970  0.0763
 6178SOL     MW23902   2.112   5.057   1.512  0.1054 -0.1774 -0.2346
 6179SOL     OW23903   1.793   0.275   5.302 -0.0224  0.1172 -0.4051
 6179SOL    HW123904   1.773   0.182   5.291 -0.4771  0.0518  0.8141
 6179SOL    HW223905   1.888   0.280   5.290  0.0431 -0.5550 -0.2435
 6179SOL     MW23906   1.803   0.263   5.299 -0.0722  0.0228 -0.2279
 6180SOL     OW23907   1.287   0.087   1.916 -0.0951  0.3365  0.5454
 6180SOL    HW123908   1.199   0.105   1.883  1.2079  2.3819 -2.0258
 6180SOL    HW223909   1.300  -0.007   1.902 -1.6597  0.1310  0.4349
 6180SOL     MW23910   1.277   0.077   1.910 -0.1286  0.5720  0.2021
 6181SOL     OW23911   2.995   0.734   2.128  0.7920 -0.2303  0.8101
 6181SOL    HW123912   3.006   0.660   2.069 -2.3073 -0.5346  0.5365
 6181SOL    HW223913   2.976   0.695   2.213 -0.3918  0.2198  0.7635
 6181SOL     MW23914   2.994   0.720   2.131  0.2437 -0.2117  0.7691
 6182SOL     OW23915   4.029   4.175   1.945  0.1161 -0.4845  0.4583
 6182SOL    HW123916   4.107   4.146   1.992  0.3682 -0.1219  0.2670
 6182SOL    HW223917   4.046   4.266   1.924 -1.5735  0.4550  2.9224
 6182SOL     MW23918   4.041   4.183   1.948 -0.0677 -0.3181  0.7492
 6183SOL     OW23919   1.874   3.533   4.849 -0.4081 -0.0084  0.3066
 6183SOL    HW123920   1.923   3.476   4.909  0.3912  0.2081 -0.1277
 6183SOL    HW223921   1.870   3.617   4.895  0.1726  0.1474  0.0788
 6183SOL     MW23922   1.880   3.536   4.863 -0.2315  0.0393  0.2217
 6184SOL     OW23923   3.325   5.086   2.704  0.5495 -0.1431  0.6668
 6184SOL    HW123924   3.393   5.058   2.764  1.2966  0.0577 -0.0670
 6184SOL    HW223925   3.272   5.148   2.754  0.0485 -1.3807  1.6796
 6184SOL     MW23926   3.327   5.091   2.718  0.5808 -0.2761  0.7026
 6185SOL     OW23927   0.434   3.418   2.119 -0.1498  0.2471 -0.1119
 6185SOL    HW123928   0.379   3.351   2.080 -2.4421  0.9760  1.7495
 6185SOL    HW223929   0.518   3.410   2.074 -1.0215 -2.4874 -1.3179
 6185SOL     MW23930   0.438   3.409   2.109 -0.5548 -0.0098 -0.0279
 6186SOL     OW23931   5.147   4.910   0.011 -0.3769  0.1071  0.2898
 6186SOL    HW123932   5.132   4.892   0.104  2.7488 -1.5168  0.5402
 6186SOL    HW223933   5.087   4.851  -0.034  0.9445 -2.0660  1.2893
 6186SOL     MW23934   5.137   4.900   0.017  0.1926 -0.3786  0.4498
 6187SOL     OW23935   2.760   2.015   0.520  0.4019  0.0296 -0.8772
 6187SOL    HW123936   2.791   1.982   0.436  2.5400  1.0085 -0.5156
 6187SOL    HW223937   2.761   2.110   0.511  1.4234  0.1818  0.4712
 6187SOL     MW23938   2.764   2.023   0.508  0.8063  0.1745 -0.6583
 6188SOL     OW23939   2.633   2.474   2.560  0.8697  0.3546  0.1342
 6188SOL    HW123940   2.714   2.520   2.539  2.5210 -2.6346 -0.3475
 6188SOL    HW223941   2.609   2.430   2.479 -1.3690  1.3446  0.2300
 6188SOL     MW23942   2.641   2.474   2.547  0.7946  0.0987  0.0849
 6189SOL     OW23943   0.626   2.759   3.763 -0.1695  0.1105  0.1999
 6189SOL    HW123944   0.673   2.685   3.800 -2.2901 -1.7866 -0.7502
 6189SOL    HW223945   0.575   2.795   3.836 -1.5690 -1.3857  0.0037
 6189SOL     MW23946   0.625   2.754   3.777 -0.6201 -0.3240  0.0532
 6190SOL     OW23947   5.032   3.040   3.937 -0.0393 -0.3267 -0.2731
 6190SOL    HW123948   5.069   2.982   3.870  0.6813  0.7667 -0.8421
 6190SOL    HW223949   4.938   3.024   3.933  0.1235 -1.2157 -0.6571
 6190SOL     MW23950   5.024   3.031   3.928  0.0734 -0.3004 -0.3951
 6191SOL     OW23951   0.394   1.878   5.396 -0.1127  0.0900  0.1052
 6191SOL    HW123952   0.354   1.938   5.459  0.9694 -0.0695  0.9677
 6191SOL    HW223953   0.463   1.833   5.446 -0.3388 -1.2550 -0.7488
 6191SOL     MW23954   0.398   1.880   5.411 -0.0031 -0.1026  0.1068
 6192SOL     OW23955   4.063   5.537   1.022  0.0057  0.3015 -0.4811
 6192SOL    HW123956   4.125   5.594   1.068  1.1208 -0.9696 -0.3664
 6192SOL    HW223957   4.035   5.474   1.088 -2.2543  1.4960 -0.2525
 6192SOL     MW23958   4.067   5.536   1.036 -0.1407  0.2913 -0.4371
 6193SOL     OW23959   2.859   2.425   3.082 -0.4704  0.0676  0.0120
 6193SOL    HW123960   2.904   2.367   3.144 -1.0194 -0.8826 -0.4759
 6193SOL    HW223961   2.823   2.494   3.136  0.6970  0.2839  0.5353
 6193SOL     MW23962   2.860   2.426   3.097 -0.3912 -0.0265  0.0165
 6194SOL     OW23963   0.596   4.993   2.337  0.8708 -0.8835  0.1180
 6194SOL    HW123964   0.512   5.018   2.375  0.6228 -1.0042 -0.3373
 6194SOL    HW223965   0.573   4.927   2.271  1.3068 -0.8073 -0.1124
 6194SOL     MW23966   0.582   4.988   2.333  0.8948 -0.8893  0.0303
 6195SOL     OW23967   4.176   4.060   4.823 -0.1033 -0.3190  0.5165
 6195SOL    HW123968   4.210   4.102   4.744 -1.2451 -1.3475 -0.5714
 6195SOL    HW223969   4.253   4.037   4.874  0.8339 -1.8459 -1.4895
 6195SOL     MW23970   4.190   4.062   4.819 -0.1297 -0.6461  0.1197
 6196SOL     OW23971   5.853   3.923   3.224  0.1410 -0.3729 -0.2871
 6196SOL    HW123972   5.781   3.861   3.209  0.3284 -0.3614 -1.2310
 6196SOL    HW223973   5.834   3.997   3.166  0.0133  0.3900  0.7078
 6196SOL     MW23974   5.841   3.924   3.215  0.1483 -0.2737 -0.2806
 6197SOL     OW23975   3.245   4.408   4.615  0.0846 -0.5662  0.0637
 6197SOL    HW123976   3.314   4.469   4.589 -0.3534  0.6444  1.6168
 6197SOL    HW223977   3.164   4.450   4.586 -0.2825  0.0167  1.8581
 6197SOL     MW23978   3.243   4.421   4.608 -0.0184 -0.3371  0.4926
 6198SOL     OW23979   4.618   2.934   5.666 -0.0448 -0.0663 -0.1864
 6198SOL    HW123980   4.632   2.877   5.591 -0.4385 -0.7092  0.2195
 6198SOL    HW223981   4.573   2.879   5.730  2.1393 -0.1541  1.3497
 6198SOL     MW23982   4.614   2.919   5.665  0.1845 -0.1597  0.0625
 6199SOL     OW23983   5.841   3.480   1.773 -0.4889  0.2305 -0.4117
 6199SOL    HW123984   5.929   3.456   1.743 -0.1856 -0.1477  0.7450
 6199SOL    HW223985   5.783   3.415   1.733 -0.1571  0.0646 -0.6211
 6199SOL     MW23986   5.845   3.468   1.764 -0.4082  0.1609 -0.2904
 6200SOL     OW23987   4.330   5.497   2.273  0.3272  0.4885 -0.1408
 6200SOL    HW123988   4.410   5.513   2.223  0.6969  0.6605  0.5006
 6200SOL    HW223989   4.359   5.490   2.364 -0.4418  1.0450  0.1582
 6200SOL     MW23990   4.344   5.498   2.279  0.2761  0.5822 -0.0200
 6201SOL     OW23991   4.261   3.881   1.445  0.0380  0.4650  0.0661
 6201SOL    HW123992   4.201   3.935   1.392  2.0631  1.0771 -1.6616
 6201SOL    HW223993   4.264   3.797   1.399 -0.1454  0.1473  0.6336
 6201SOL     MW23994   4.254   3.877   1.432  0.2737  0.5026 -0.0823
 6202SOL     OW23995   3.589   1.586   4.753 -0.2844 -0.2429 -0.6483
 6202SOL    HW123996   3.523   1.651   4.728 -1.0939 -0.7257  0.1851
 6202SOL    HW223997   3.643   1.576   4.675  0.6029  2.3122 -0.4340
 6202SOL     MW23998   3.587   1.593   4.740 -0.2744  0.0224 -0.5145
 6203SOL     OW23999   3.738   2.938   3.818  0.7256 -0.8320 -0.3803
 6203SOL    HW124000   3.653   2.951   3.860  2.0252  0.4372  1.9433
 6203SOL    HW224001   3.752   2.844   3.819 -0.3595 -0.9938 -0.2134
 6203SOL     MW24002   3.729   2.928   3.823  0.7532 -0.6902 -0.0615
 6204SOL     OW24003   2.844   3.148   4.377 -0.2391  0.3527  0.6615
 6204SOL    HW124004   2.934   3.114   4.382 -0.2698  0.0039 -0.9005
 6204SOL    HW224005   2.803   3.095   4.308 -1.4689  0.9008  0.9768
 6204SOL     MW24006   2.851   3.136   4.369 -0.4003  0.3781  0.5021
 6205SOL     OW24007   0.034   3.175   4.932  0.0769  0.5191  0.3739
 6205SOL    HW124008  -0.041   3.232   4.913  1.2313  1.4785 -1.4987
 6205SOL    HW224009   0.090   3.184   4.855  3.0895  1.3750  2.5943
 6205SOL     MW24010   0.031   3.183   4.920  0.6104  0.7515  0.4182
 6206SOL     OW24011   0.087   0.652   0.892  0.3394 -0.3373  0.5369
 6206SOL    HW124012   0.028   0.599   0.945  1.5881 -1.2877  1.0155
 6206SOL    HW224013   0.079   0.740   0.928 -0.6069 -0.5088  0.7456
 6206SOL     MW24014   0.079   0.657   0.904  0.3781 -0.4809  0.6250
 6207SOL     OW24015   3.293   0.271   5.013 -0.0217  0.0314 -0.4248
 6207SOL    HW124016   3.283   0.286   5.107 -0.2768  1.7959 -0.7177
 6207SOL    HW224017   3.350   0.195   5.007  0.2135  0.0680  1.1668
 6207SOL     MW24018   3.299   0.263   5.024 -0.0243  0.2619 -0.2584
 6208SOL     OW24019   2.993   3.399   3.177 -0.1247 -0.4918  0.1368
 6208SOL    HW124020   3.032   3.476   3.218  0.0425 -0.4688 -0.0638
 6208SOL    HW224021   3.040   3.390   3.094  0.2340 -1.1385  0.4085
 6208SOL     MW24022   3.004   3.408   3.172 -0.0572 -0.5717  0.1459
 6209SOL     OW24023   0.990   5.491   5.117  0.1299 -0.0530 -0.0152
 6209SOL    HW124024   1.022   5.404   5.096  0.5516  0.0615  0.1612
 6209SOL    HW224025   0.962   5.527   5.032 -1.5392 -0.9554  0.1377
 6209SOL     MW24026   0.990   5.485   5.103 -0.0298 -0.1540  0.0277
 6210SOL     OW24027   3.062   0.701   3.275  0.4196  0.7090 -0.1996
 6210SOL    HW124028   2.988   0.754   3.308 -0.7207 -0.0200 -1.5340
 6210SOL    HW224029   3.033   0.611   3.287  0.3928  0.4243 -2.2655
 6210SOL     MW24030   3.049   0.697   3.281  0.2704  0.5792 -0.6351
 6211SOL     OW24031   5.450   4.789   0.423 -0.0357 -0.3041 -0.4526
 6211SOL    HW124032   5.531   4.740   0.410 -0.0790 -0.6421  0.5635
 6211SOL    HW224033   5.478   4.874   0.458 -0.2084 -0.8796  1.0833
 6211SOL     MW24034   5.464   4.794   0.426 -0.0629 -0.4210 -0.1259
 6212SOL     OW24035   0.522   4.065   3.905 -0.9250  0.1133  0.3294
 6212SOL    HW124036   0.593   4.115   3.945 -0.3396  0.8886 -1.6490
 6212SOL    HW224037   0.482   4.125   3.842 -0.2905 -1.8246 -1.9993
 6212SOL     MW24038   0.526   4.079   3.902 -0.7688 -0.0353 -0.2222
 6213SOL     OW24039   3.365   1.833   5.256 -0.0742  0.1341  0.0219
 6213SOL    HW124040   3.343   1.746   5.287  2.0539 -0.3949  0.1197
 6213SOL    HW224041   3.379   1.822   5.161  0.2666  0.3386  0.0465
 6213SOL     MW24042   3.364   1.821   5.248  0.2420  0.0926  0.0372
 6214SOL     OW24043   4.313   1.926   5.384  0.2018 -0.1057  0.2758
 6214SOL    HW124044   4.241   1.950   5.325  0.6966 -0.9899 -0.6982
 6214SOL    HW224045   4.349   2.010   5.414 -2.2944  0.3845  2.1039
 6214SOL     MW24046   4.308   1.940   5.381 -0.0548 -0.1562  0.3843
 6215SOL     OW24047   0.717   4.190   5.128  0.2233  0.4894  0.3963
 6215SOL    HW124048   0.798   4.242   5.124  0.3930  0.2089  0.2168
 6215SOL    HW224049   0.649   4.255   5.145  0.4905  0.7232  0.5939
 6215SOL     MW24050   0.719   4.205   5.130  0.2792  0.4835  0.3986
 6216SOL     OW24051   5.829   4.366   3.695 -0.3575  0.0737  0.1201
 6216SOL    HW124052   5.872   4.281   3.690  0.4219  0.4429  0.3639
 6216SOL    HW224053   5.863   4.414   3.619 -0.9262  0.1046 -0.1125
 6216SOL     MW24054   5.839   4.362   3.684 -0.3300  0.1249  0.1214
 6217SOL     OW24055   0.588   0.151   5.586  0.2172  0.4654 -0.1402
 6217SOL    HW124056   0.677   0.151   5.623  0.8332  0.7021 -1.5852
 6217SOL    HW224057   0.531   0.159   5.662  1.5238  3.5279  0.6296
 6217SOL     MW24058   0.592   0.152   5.600  0.4633  0.8878 -0.2270
 6218SOL     OW24059   1.592   1.786   5.818  0.2185  0.2608 -0.2529
 6218SOL    HW124060   1.638   1.869   5.822  0.3601  0.1456  0.9160
 6218SOL    HW224061   1.596   1.759   5.726  3.7154 -0.4429  0.0302
 6218SOL     MW24062   1.598   1.793   5.807  0.6844  0.1560 -0.0668
 6219SOL     OW24063   4.588   4.850   3.419  0.0973 -0.0376  0.3843
 6219SOL    HW124064   4.611   4.805   3.501  0.7142  1.4640  1.0417
 6219SOL    HW224065   4.525   4.917   3.445 -0.2010  0.0272 -0.4762
 6219SOL     MW24066   4.582   4.853   3.433  0.1383  0.1626  0.3581
 6220SOL     OW24067   4.340   1.091   2.208 -0.2340 -0.5288 -0.3585
 6220SOL    HW124068   4.320   1.144   2.285 -0.4789  0.7622 -1.2902
 6220SOL    HW224069   4.260   1.093   2.156  0.7030  0.6603 -1.8137
 6220SOL     MW24070   4.327   1.098   2.211 -0.1454 -0.2114 -0.6640
 6221SOL     OW24071   3.961   3.832   2.949 -0.2378 -0.2941  0.2006
 6221SOL    HW124072   3.991   3.922   2.955 -0.9758  0.0632 -1.3579
 6221SOL    HW224073   3.867   3.837   2.969 -0.2433 -0.7518  0.3000
 6221SOL     MW24074   3.953   3.844   2.952 -0.3328 -0.3073  0.0138
 6222SOL     OW24075   0.417   4.094   0.506  0.1044  0.1746 -0.0704
 6222SOL    HW124076   0.428   4.028   0.437  1.0687  2.1096 -1.8375
 6222SOL    HW224077   0.341   4.145   0.480 -1.3842 -0.9709  1.9330
 6222SOL     MW24078   0.409   4.092   0.494  0.0373  0.2756 -0.0401
 6223SOL     OW24079   0.868   4.682   2.287 -0.3827 -0.5369  0.0010
 6223SOL    HW124080   0.876   4.763   2.336 -0.4815 -0.3174 -0.3419
 6223SOL    HW224081   0.945   4.631   2.311 -0.5663 -0.5398  0.5828
 6223SOL     MW24082   0.879   4.685   2.296 -0.4188 -0.5093  0.0315
 6224SOL     OW24083   0.834   3.108   4.354  0.9138  0.5299 -0.2740
 6224SOL    HW124084   0.801   3.076   4.438 -0.1149 -0.6717 -1.1292
 6224SOL    HW224085   0.892   3.181   4.378 -1.1026  1.6609  1.3515
 6224SOL     MW24086   0.838   3.114   4.368  0.5240  0.5207 -0.1760
 6225SOL     OW24087   4.081   4.035   1.280  0.6447  0.3109 -0.6982
 6225SOL    HW124088   4.084   4.129   1.296 -1.7030  0.2424  0.2729
 6225SOL    HW224089   4.030   4.026   1.199  1.1203 -0.1278 -0.9569
 6225SOL     MW24090   4.075   4.046   1.272  0.4048  0.2460 -0.6069
 6226SOL     OW24091   2.887   4.606   0.117 -0.0887 -0.1341  0.0301
 6226SOL    HW124092   2.966   4.624   0.168 -0.2414  1.2974 -0.2078
 6226SOL    HW224093   2.895   4.664   0.040 -1.4675  0.1877  0.1191
 6226SOL     MW24094   2.898   4.616   0.114 -0.2847  0.0901  0.0110
 6227SOL     OW24095   0.355   4.802   3.208 -0.0140  0.3094  0.0776
 6227SOL    HW124096   0.268   4.842   3.213 -0.4386 -0.3856 -1.3643
 6227SOL    HW224097   0.343   4.715   3.247  0.1037  0.3172  0.1312
 6227SOL     MW24098   0.342   4.796   3.213 -0.0533  0.2213 -0.0999
 6228SOL     OW24099   5.551   3.229   3.006 -0.1237  0.1037  0.2108
 6228SOL    HW124100   5.459   3.203   3.007 -0.5194  1.4272 -0.8483
 6228SOL    HW224101   5.594   3.166   3.064 -1.9359  0.4176  1.9287
 6228SOL     MW24102   5.545   3.217   3.014 -0.4067  0.3133  0.2954
 6229SOL     OW24103   1.115   4.753   5.803  0.1865  0.3909 -0.1235
 6229SOL    HW124104   1.067   4.825   5.763 -1.9770 -0.2057  1.3383
 6229SOL    HW224105   1.192   4.794   5.842 -1.2779  1.9941  1.1165
 6229SOL     MW24106   1.119   4.767   5.803 -0.2779  0.5193  0.2222
 6230SOL     OW24107   4.298   5.934   2.204 -0.9948 -0.1086 -0.1319
 6230SOL    HW124108   4.302   5.898   2.293 -0.2246 -1.5021 -0.7061
 6230SOL    HW224109   4.277   5.858   2.149 -1.7807  0.8054 -1.1005
 6230SOL     MW24110   4.296   5.920   2.208 -0.9966 -0.1698 -0.3297
 6231SOL     OW24111   4.300   0.136   1.653  0.2481  0.1918  0.0242
 6231SOL    HW124112   4.350   0.187   1.589  0.5063  0.5744  0.5210
 6231SOL    HW224113   4.214   0.123   1.613  0.0833  1.2858  0.0113
 6231SOL     MW24114   4.295   0.141   1.640  0.2599  0.3809  0.0861
 6232SOL     OW24115   3.668   1.773   5.473 -0.2584 -0.3436 -0.8765
 6232SOL    HW124116   3.599   1.735   5.418 -0.4537  2.2285 -2.4452
 6232SOL    HW224117   3.750   1.740   5.436 -0.4792 -0.2329 -1.4626
 6232SOL     MW24118   3.670   1.764   5.461 -0.3116 -0.0001 -1.1520
 6233SOL     OW24119   2.144   4.881   2.819 -0.2243  0.0935 -0.2178
 6233SOL    HW124120   2.054   4.908   2.801 -0.2179  0.0603 -0.3003
 6233SOL    HW224121   2.184   4.871   2.733 -1.3685 -4.0892 -0.3316
 6233SOL     MW24122   2.137   4.883   2.806 -0.3703 -0.4463 -0.2432
 6234SOL     OW24123   3.929   5.524   0.367  0.4674  0.0263  0.0556
 6234SOL    HW124124   3.874   5.558   0.437  0.2518  0.9778 -0.5656
 6234SOL    HW224125   3.999   5.478   0.412  0.5819  1.0170  0.9172
 6234SOL     MW24126   3.931   5.523   0.382  0.4547  0.2751  0.0863
 6235SOL     OW24127   3.327   0.240   0.218 -0.2823  0.5512 -0.4677
 6235SOL    HW124128   3.302   0.189   0.296  1.4752 -1.0036 -0.8925
 6235SOL    HW224129   3.265   0.313   0.217 -1.1439 -0.0958  1.6831
 6235SOL     MW24130   3.316   0.242   0.228 -0.1676  0.2694 -0.2468
 6236SOL     OW24131   1.350   5.652   3.593 -0.0159  0.4014 -0.6698
 6236SOL    HW124132   1.365   5.746   3.596  2.0093  0.1188 -0.5896
 6236SOL    HW224133   1.368   5.623   3.683  1.3493 -0.2921 -1.1414
 6236SOL     MW24134   1.355   5.660   3.605  0.4181  0.2761 -0.7198
 6237SOL     OW24135   3.877   1.531   2.103  0.1230 -1.0856  0.7508
 6237SOL    HW124136   3.946   1.502   2.043 -0.6225  1.2182 -1.2910
 6237SOL    HW224137   3.827   1.452   2.122  1.4124 -2.1795 -0.3192
 6237SOL     MW24138   3.879   1.517   2.098  0.1929 -0.9307  0.3526
 6238SOL     OW24139   1.088   2.967   2.955 -0.0305  0.0610  0.2523
 6238SOL    HW124140   1.157   2.954   2.891 -0.7676 -0.5639 -0.4358
 6238SOL    HW224141   1.087   3.061   2.972 -0.1325  0.2899 -1.0082
 6238SOL     MW24142   1.096   2.978   2.949 -0.1380  0.0103  0.0029
 6239SOL     OW24143   3.009   4.070   5.635 -0.3694  0.4210 -0.3207
 6239SOL    HW124144   3.015   3.975   5.626 -1.5455  0.2997  0.0240
 6239SOL    HW224145   2.946   4.083   5.707  2.0146  1.4385  1.6456
 6239SOL     MW24146   3.002   4.059   5.643 -0.2146  0.5360 -0.0253
 6240SOL     OW24147   0.373   3.035   4.136 -0.8739  0.3973  0.1780
 6240SOL    HW124148   0.281   3.062   4.138 -0.9912 -0.1060  2.3439
 6240SOL    HW224149   0.399   3.030   4.228  0.2148 -3.2591 -0.2467
 6240SOL     MW24150   0.364   3.038   4.148 -0.7495 -0.1349  0.4005
 6241SOL     OW24151   2.910   3.292   3.488 -0.0195 -0.0694  0.3438
 6241SOL    HW124152   2.941   3.270   3.400  0.5177 -0.1246  0.5420
 6241SOL    HW224153   2.852   3.220   3.511  0.8911 -0.7432  0.5628
 6241SOL     MW24154   2.906   3.280   3.480  0.1657 -0.1628  0.3974
 6242SOL     OW24155   4.598   3.150   5.487  0.4401 -0.4585 -0.3882
 6242SOL    HW124156   4.690   3.173   5.475  0.7168 -1.3111  0.1090
 6242SOL    HW224157   4.595   3.104   5.570 -0.6650  0.7717  0.2728
 6242SOL     MW24158   4.609   3.147   5.496  0.3343 -0.4106 -0.2403
 6243SOL     OW24159   0.620   5.705   3.209  0.0475  0.2191  0.3275
 6243SOL    HW124160   0.635   5.635   3.145  0.8163 -0.0043  0.7537
 6243SOL    HW224161   0.707   5.740   3.227 -0.1562  0.2341  1.3057
 6243SOL     MW24162   0.633   5.700   3.203  0.1198  0.1922  0.5076
 6244SOL     OW24163   0.892   2.801   4.599 -0.0486  0.8062  0.3074
 6244SOL    HW124164   0.983   2.824   4.584 -0.1271  1.2793  0.5524
 6244SOL    HW224165   0.842   2.874   4.562 -0.2919  1.1490  1.3155
 6244SOL     MW24166   0.897   2.813   4.592 -0.0898  0.9105  0.4683
 6245SOL     OW24167   2.362   0.604   3.383 -0.4021  0.0386  0.2904
 6245SOL    HW124168   2.396   0.617   3.471 -3.1272  2.5801  1.0416
 6245SOL    HW224169   2.437   0.623   3.326  0.6436  1.2079  1.9926
 6245SOL     MW24170   2.376   0.608   3.387 -0.6170  0.5136  0.6046
 6246SOL     OW24171   4.167   2.013   5.593 -0.0732  0.3311 -0.0918
 6246SOL    HW124172   4.219   1.994   5.514 -1.1422 -2.3293 -0.2215
 6246SOL    HW224173   4.176   1.934   5.646 -3.4619  0.0607  0.1545
 6246SOL     MW24174   4.175   2.000   5.589 -0.6437 -0.0441 -0.0768
 6247SOL     OW24175   0.924   3.971   1.462 -0.0150 -0.2839  0.3427
 6247SOL    HW124176   1.000   4.015   1.424  0.2443 -0.2462  0.9025
 6247SOL    HW224177   0.925   3.996   1.554 -0.7775 -0.1818  0.3297
 6247SOL     MW24178   0.934   3.980   1.469 -0.0795 -0.2661  0.4126
 6248SOL     OW24179   5.172   4.921   2.671  0.0411 -0.2471  0.4338
 6248SOL    HW124180   5.093   4.952   2.626 -0.8459 -2.4864  0.4025
 6248SOL    HW224181   5.243   4.940   2.610 -1.0215 -2.2340 -1.5015
 6248SOL     MW24182   5.171   4.927   2.657 -0.2084 -0.7882  0.1822
 6249SOL     OW24183   2.563   5.242   2.321 -0.1162  0.1377  0.0020
 6249SOL    HW124184   2.551   5.303   2.395  0.0891 -0.3987  0.4776
 6249SOL    HW224185   2.597   5.297   2.251  2.1897  0.1712  1.1162
 6249SOL     MW24186   2.566   5.257   2.322  0.2055  0.0734  0.2055
 6250SOL     OW24187   1.396   2.353   0.626  0.1236  0.0464  0.2281
 6250SOL    HW124188   1.348   2.271   0.635  1.4531 -0.9201 -1.2708
 6250SOL    HW224189   1.488   2.327   0.626  0.7461  1.8992  3.5528
 6250SOL     MW24190   1.402   2.339   0.627  0.3736  0.1600  0.4618
 6251SOL     OW24191   0.907   2.657   4.337 -0.2481 -0.2343  0.3793
 6251SOL    HW124192   0.869   2.569   4.345  0.9922 -0.8128  0.0004
 6251SOL    HW224193   0.879   2.702   4.417  0.3169 -1.4404  1.2750
 6251SOL     MW24194   0.898   2.651   4.348 -0.0170 -0.4628  0.4454
 6252SOL     OW24195   5.264   3.478   1.788  0.2870  0.4483 -0.2013
 6252SOL    HW124196   5.333   3.539   1.814  2.2931 -0.2044 -3.6848
 6252SOL    HW224197   5.193   3.534   1.756 -0.2584  1.0836  2.0643
 6252SOL     MW24198   5.264   3.493   1.787  0.4735  0.4461 -0.3572
 6253SOL     OW24199   0.725   3.536   4.105  0.4410 -0.1438 -0.3123
 6253SOL    HW124200   0.753   3.619   4.066  0.7434  0.0098  0.2342
 6253SOL    HW224201   0.748   3.470   4.039  0.9641  0.1149 -0.3874
 6253SOL     MW24202   0.731   3.538   4.092  0.5467 -0.0911 -0.2522
 6254SOL     OW24203   4.572   4.172   3.815  0.1973  0.8448 -0.0822
 6254SOL    HW124204   4.657   4.165   3.858  0.6550  0.2292 -1.0774
 6254SOL    HW224205   4.509   4.157   3.885  0.9415 -0.5210  0.3197
 6254SOL     MW24206   4.575   4.169   3.829  0.3514  0.5908 -0.1581
 6255SOL     OW24207   5.687   0.655   1.439 -0.8855  0.2385  0.0324
 6255SOL    HW124208   5.710   0.743   1.407  2.9544  0.0804  1.9939
 6255SOL    HW224209   5.628   0.671   1.513  0.5121  1.2682  0.9569
 6255SOL     MW24210   5.683   0.669   1.445 -0.2146  0.3502  0.4017
 6256SOL     OW24211   3.202   5.305   2.852  0.0370 -0.4673  0.1465
 6256SOL    HW124212   3.223   5.318   2.944  2.7906  4.7009 -1.0778
 6256SOL    HW224213   3.108   5.325   2.846  0.3452  1.4454  1.4367
 6256SOL     MW24214   3.192   5.309   2.863  0.4289  0.4392  0.1550
 6257SOL     OW24215   3.872   2.486   2.441  0.3252 -0.3231  0.7398
 6257SOL    HW124216   3.859   2.496   2.535  1.4014 -2.4514  1.1526
 6257SOL    HW224217   3.828   2.561   2.402 -0.1436  0.5708  2.9410
 6257SOL     MW24218   3.865   2.497   2.448  0.4029 -0.4814  1.0743
 6258SOL     OW24219   3.906   4.751   2.402 -0.5971 -0.0577  0.2256
 6258SOL    HW124220   3.966   4.734   2.474  0.7617  1.8978 -0.4006
 6258SOL    HW224221   3.821   4.724   2.435  0.2543 -0.7062  1.9721
 6258SOL     MW24222   3.903   4.745   2.415 -0.3138  0.1097  0.3688
 6259SOL     OW24223   4.811   3.793   3.299  0.5643  0.1799  0.2931
 6259SOL    HW124224   4.862   3.790   3.380  2.3705  1.4920 -0.7604
 6259SOL    HW224225   4.866   3.748   3.234 -0.2538  0.3163 -0.5057
 6259SOL     MW24226   4.825   3.787   3.301  0.6905  0.3655  0.0560
 6260SOL     OW24227   1.743   1.672   0.663  0.1359  0.5349  0.3496
 6260SOL    HW124228   1.806   1.714   0.722 -1.5938  1.5128  1.5545
 6260SOL    HW224229   1.659   1.709   0.688 -0.9638 -0.9422 -1.0638
 6260SOL     MW24230   1.740   1.682   0.674 -0.2263  0.4711  0.3229
 6261SOL     OW24231   1.705   1.860   4.609  0.2207  0.5184  0.3932
 6261SOL    HW124232   1.631   1.837   4.553  0.5867  1.7745 -0.6294
 6261SOL    HW224233   1.669   1.857   4.698 -0.5047 -0.9139  0.0666
 6261SOL     MW24234   1.691   1.857   4.613  0.1746  0.4959  0.2208
 6262SOL     OW24235   5.525   1.255   0.608 -0.4206 -0.0012 -0.8192
 6262SOL    HW124236   5.585   1.197   0.655  0.1111  0.8735 -0.4165
 6262SOL    HW224237   5.582   1.319   0.566 -1.1400  1.6527  0.6765
 6262SOL     MW24238   5.540   1.255   0.609 -0.4444  0.3223 -0.5762
 6263SOL     OW24239   5.958   3.375   5.348 -0.3600  0.0115 -0.8659
 6263SOL    HW124240   6.029   3.315   5.370 -1.0866 -0.6927 -0.4364
 6263SOL    HW224241   5.979   3.405   5.259  0.8496  0.3541 -0.4748
 6263SOL     MW24242   5.970   3.371   5.339 -0.2980 -0.0348 -0.7610
 6264SOL     OW24243   3.814   4.144   3.144 -0.4574  0.2434  0.2103
 6264SOL    HW124244   3.894   4.148   3.090 -0.7301  0.9308 -0.1483
 6264SOL    HW224245   3.753   4.202   3.100 -1.5972 -1.2466 -0.2310
 6264SOL     MW24246   3.816   4.152   3.131 -0.6382  0.1407  0.1080
 6265SOL     OW24247   5.086   3.629   3.238  0.6316  0.1128 -0.1863
 6265SOL    HW124248   5.059   3.538   3.228  0.2949  0.0886  0.8692
 6265SOL    HW224249   5.111   3.656   3.150 -2.7586  0.1307 -1.2143
 6265SOL     MW24250   5.086   3.621   3.226  0.1545  0.1123 -0.1826
 6266SOL     OW24251   2.973   1.382   0.175 -0.7059  0.7681  0.3027
 6266SOL    HW124252   2.998   1.290   0.182 -1.6788  0.4617 -0.2393
 6266SOL    HW224253   2.930   1.401   0.259 -0.3171  0.7829  0.4976
 6266SOL     MW24254   2.971   1.373   0.187 -0.7808  0.7309  0.2583
 6267SOL     OW24255   3.451   5.736   4.786  0.5250  0.1299  0.4741
 6267SOL    HW124256   3.439   5.701   4.698  2.1552  0.6114  0.0459
 6267SOL    HW224257   3.388   5.688   4.840 -0.0814 -0.5694 -0.8359
 6267SOL     MW24258   3.441   5.726   4.782  0.6559  0.1016  0.2518
 6268SOL     OW24259   5.137   4.087   2.422  0.1828  0.2126 -0.2376
 6268SOL    HW124260   5.145   4.175   2.386 -1.1849  0.1788 -0.6392
 6268SOL    HW224261   5.065   4.094   2.486  0.0908 -0.5957 -0.2466
 6268SOL     MW24262   5.129   4.099   2.426 -0.0038  0.1049 -0.2899
 6269SOL     OW24263   1.778   4.338   4.531  0.1638  0.3913 -0.5803
 6269SOL    HW124264   1.811   4.279   4.463 -0.4347 -0.8853  0.2119
 6269SOL    HW224265   1.685   4.347   4.511  0.0781  0.3781 -0.1916
 6269SOL     MW24266   1.770   4.331   4.520  0.0762  0.2260 -0.4292
 6270SOL     OW24267   4.791   3.681   0.941  0.3709  0.3242  0.5145
 6270SOL    HW124268   4.862   3.676   0.877 -0.4517 -2.1374 -0.2645
 6270SOL    HW224269   4.723   3.623   0.907 -0.3964 -0.4851  3.2448
 6270SOL     MW24270   4.791   3.673   0.929  0.1669 -0.0947  0.7643
 6271SOL     OW24271   0.271   3.987   2.218 -0.0905 -0.5162 -0.3847
 6271SOL    HW124272   0.229   3.941   2.146 -0.3868  0.0586 -0.5810
 6271SOL    HW224273   0.324   4.056   2.176 -0.0605 -0.3445 -0.0694
 6271SOL     MW24274   0.273   3.990   2.204 -0.1246 -0.4208 -0.3693
 6272SOL     OW24275   2.980   4.783   2.405  0.1638 -0.3640  0.4725
 6272SOL    HW124276   3.071   4.794   2.375  0.6372  4.3625  3.1053
 6272SOL    HW224277   2.927   4.824   2.337 -0.1012 -3.1982 -1.1060
 6272SOL     MW24278   2.985   4.790   2.392  0.1905 -0.1216  0.6075
 6273SOL     OW24279   2.063   0.040   1.395 -0.2616 -0.3292 -0.0246
 6273SOL    HW124280   2.093  -0.026   1.332  1.5635  0.8218 -0.3873
 6273SOL    HW224281   1.971   0.017   1.411 -0.3912 -1.4168 -2.1042
 6273SOL     MW24282   2.055   0.029   1.389 -0.0446 -0.3210 -0.3371
 6274SOL     OW24283   2.393   5.072   2.600 -0.8782  0.0661  0.0416
 6274SOL    HW124284   2.402   4.977   2.608  1.4167  0.1074 -1.5221
 6274SOL    HW224285   2.449   5.107   2.670 -2.8434  0.2772  1.5304
 6274SOL     MW24286   2.402   5.064   2.610 -0.8361  0.0982  0.0322
 6275SOL     OW24287   2.375   2.066   3.381  0.8813  0.3480  0.5088
 6275SOL    HW124288   2.321   2.069   3.459 -0.6863 -0.7580 -0.5019
 6275SOL    HW224289   2.320   2.103   3.312  1.4049 -0.7350 -0.5167
 6275SOL     MW24290   2.361   2.071   3.382  0.7477  0.0679  0.2482
 6276SOL     OW24291   0.575   3.485   2.964  1.1810  0.1423  0.5302
 6276SOL    HW124292   0.500   3.451   2.915  1.1446 -0.0695  0.7304
 6276SOL    HW224293   0.630   3.527   2.898  2.5158 -2.5411 -0.1027
 6276SOL     MW24294   0.572   3.486   2.949  1.3472 -0.2284  0.4749
 6277SOL     OW24295   4.421   1.683   3.114 -0.0014 -0.5119  0.0959
 6277SOL    HW124296   4.426   1.765   3.162 -0.4380 -0.5583  0.2305
 6277SOL    HW224297   4.482   1.693   3.041  1.3966 -0.8133  1.2084
 6277SOL     MW24298   4.429   1.695   3.111  0.1216 -0.5566  0.2558
 6278SOL     OW24299   2.794   5.837   3.549 -0.4692  0.5293  0.3267
 6278SOL    HW124300   2.702   5.832   3.574 -0.8881 -0.5027 -1.3681
 6278SOL    HW224301   2.810   5.930   3.533 -1.2851  0.6795  0.3753
 6278SOL     MW24302   2.784   5.848   3.550 -0.6273  0.4163  0.1159
 6279SOL     OW24303   4.431   3.494   4.115  0.4203  0.3404 -0.3749
 6279SOL    HW124304   4.507   3.438   4.099 -0.0719 -0.4861  0.1640
 6279SOL    HW224305   4.356   3.437   4.106 -0.1845  1.2695 -1.3969
 6279SOL     MW24306   4.431   3.480   4.112  0.2799  0.3536 -0.4363
 6280SOL     OW24307   2.261   0.106   0.130 -0.5250  0.3594  0.0572
 6280SOL    HW124308   2.232   0.128   0.219  0.3131 -1.1240  0.7097
 6280SOL    HW224309   2.222   0.020   0.113  1.7180 -0.6957  0.1253
 6280SOL     MW24310   2.252   0.098   0.139 -0.1307  0.0345  0.1494
 6281SOL     OW24311   1.921   3.815   2.038  0.0559 -0.1110 -0.0506
 6281SOL    HW124312   1.877   3.818   2.123 -2.4614  0.8046 -1.3131
 6281SOL    HW224313   1.942   3.722   2.025  0.4382 -0.2623  1.5316
 6281SOL     MW24314   1.918   3.803   2.047 -0.2173 -0.0131 -0.0095
 6282SOL     OW24315   3.737   1.673   4.505  0.5925 -0.3383  0.2624
 6282SOL    HW124316   3.656   1.643   4.463  1.4252 -1.2867 -0.6796
 6282SOL    HW224317   3.751   1.761   4.470  0.2464 -0.3735  0.0371
 6282SOL     MW24318   3.728   1.680   4.495  0.6549 -0.4641  0.1130
 6283SOL     OW24319   5.039   0.605   0.491 -0.6857  0.4889 -0.0184
 6283SOL    HW124320   5.023   0.535   0.554  0.8852  0.4835  0.3944
 6283SOL    HW224321   5.076   0.560   0.415  1.0754  0.9540  0.5534
 6283SOL     MW24322   5.041   0.590   0.490 -0.2589  0.5477  0.1076
 6284SOL     OW24323   3.479   2.585   0.138 -0.5939 -0.0960  0.4722
 6284SOL    HW124324   3.429   2.560   0.215 -1.6004  0.1225 -0.1086
 6284SOL    HW224325   3.461   2.516   0.074  1.8256 -1.3708  1.0838
 6284SOL     MW24326   3.471   2.573   0.140 -0.4129 -0.2315  0.4762
 6285SOL     OW24327   2.288   3.661   4.708  0.1557  0.2246 -0.1554
 6285SOL    HW124328   2.211   3.716   4.691  1.2917  2.0085  0.3452
 6285SOL    HW224329   2.342   3.671   4.630  0.3423 -0.2555 -0.0877
 6285SOL     MW24330   2.285   3.669   4.696  0.3250  0.3917 -0.0825
 6286SOL     OW24331   5.714   3.253   5.331  0.1339  0.1253  0.2642
 6286SOL    HW124332   5.802   3.276   5.361  0.2363 -0.6034  0.5239
 6286SOL    HW224333   5.687   3.183   5.389  0.0424 -0.7965 -0.8873
 6286SOL     MW24334   5.722   3.247   5.342  0.1349 -0.0861  0.1502
 6287SOL     OW24335   4.859   2.671   1.915 -0.3915  0.2640  0.3446
 6287SOL    HW124336   4.893   2.627   1.837 -0.5776  1.6794 -0.5302
 6287SOL    HW224337   4.871   2.606   1.985  2.9716  0.2086 -0.1592
 6287SOL     MW24338   4.865   2.657   1.914  0.0148  0.4382  0.1682
 6288SOL     OW24339   1.940   1.626   5.034 -0.5659  0.4855  0.1990
 6288SOL    HW124340   1.902   1.689   5.095 -1.2657  1.8379 -1.5939
 6288SOL    HW224341   1.880   1.551   5.036 -0.9261  0.7848  0.6838
 6288SOL     MW24342   1.927   1.624   5.042 -0.7014  0.6969  0.0315
 6289SOL     OW24343   2.841   5.997   0.929  0.2627  0.3310 -0.6681
 6289SOL    HW124344   2.841   5.916   0.876 -0.6298  0.7825 -1.3724
 6289SOL    HW224345   2.924   5.993   0.977  0.4014 -0.8337 -0.9616
 6289SOL     MW24346   2.852   5.986   0.928  0.1664  0.2394 -0.7958
 6290SOL     OW24347   0.145   2.630   1.514  0.6450  0.2063  0.3284
 6290SOL    HW124348   0.198   2.551   1.529  0.9705  0.0340 -1.6322
 6290SOL    HW224349   0.119   2.658   1.602  2.5404 -0.7057  1.2129
 6290SOL     MW24350   0.148   2.624   1.527  0.9293  0.0675  0.1907
 6291SOL     OW24351   1.018   0.361   4.974  0.0374 -0.6266 -0.1220
 6291SOL    HW124352   1.091   0.423   4.972 -0.2120 -0.2289  1.9348
 6291SOL    HW224353   1.021   0.323   5.062  0.4862 -3.9148 -1.4927
 6291SOL     MW24354   1.028   0.364   4.985  0.0629 -0.9966 -0.0343
 6292SOL     OW24355   0.476   2.471   5.731 -0.2262  0.4972 -0.3058
 6292SOL    HW124356   0.441   2.488   5.643 -1.5466 -3.6177 -0.6391
 6292SOL    HW224357   0.408   2.502   5.791  1.3122  4.7686 -0.5402
 6292SOL     MW24358   0.463   2.477   5.727 -0.1983  0.5169 -0.3786
 6293SOL     OW24359   1.690   3.056   0.574  0.4016  0.3029 -0.1191
 6293SOL    HW124360   1.679   2.964   0.549  0.7461  0.3716 -0.5389
 6293SOL    HW224361   1.724   3.052   0.664  0.5601  0.0182 -0.1892
 6293SOL     MW24362   1.693   3.043   0.582  0.4661  0.2751 -0.1819
 6294SOL     OW24363   3.117   4.882   0.438  0.4802  0.6048  0.0370
 6294SOL    HW124364   3.135   4.823   0.364 -1.1222  0.5836 -0.3394
 6294SOL    HW224365   3.051   4.836   0.490  2.6899 -0.0923  2.3688
 6294SOL     MW24366   3.111   4.868   0.435  0.5579  0.5126  0.2874
 6295SOL     OW24367   0.998   3.652   3.198  0.1770  0.3112  0.1292
 6295SOL    HW124368   0.930   3.595   3.163  0.7652 -0.2220 -0.1471
 6295SOL    HW224369   0.994   3.731   3.144  0.8154 -0.3511 -0.8849
 6295SOL     MW24370   0.989   3.655   3.187  0.3340  0.1583 -0.0360
 6296SOL     OW24371   3.176   1.435   3.169 -0.1937  0.4311  0.3337
 6296SOL    HW124372   3.112   1.397   3.229  1.4780 -2.3761  0.4572
 6296SOL    HW224373   3.229   1.360   3.140 -0.0787  1.8924 -3.5994
 6296SOL     MW24374   3.174   1.420   3.173  0.0348  0.2587 -0.1540
 6297SOL     OW24375   3.620   5.152   4.851  0.7928 -0.4637  0.7595
 6297SOL    HW124376   3.624   5.089   4.924 -0.9187 -2.3222 -0.6894
 6297SOL    HW224377   3.695   5.130   4.796  1.1377 -0.1373  1.0921
 6297SOL     MW24378   3.630   5.141   4.854  0.6182 -0.6595  0.6166
 6298SOL     OW24379   1.068   5.405   4.385 -0.0941  0.2188  0.0737
 6298SOL    HW124380   1.107   5.438   4.465  1.0402  0.4431 -0.5559
 6298SOL    HW224381   1.092   5.312   4.382  1.3689  0.6117 -0.8701
 6298SOL     MW24382   1.076   5.397   4.395  0.2384  0.2980 -0.1278
 6299SOL     OW24383   4.136   2.123   0.990 -0.3914  0.3027 -0.5585
 6299SOL    HW124384   4.069   2.058   0.967 -2.1543  1.7976  0.1748
 6299SOL    HW224385   4.123   2.194   0.927  0.5729  0.5831 -0.4541
 6299SOL     MW24386   4.126   2.124   0.979 -0.4935  0.5300 -0.4513
 6300SOL     OW24387   4.097   4.173   0.960  0.2690  0.0448  0.1881
 6300SOL    HW124388   4.058   4.252   0.924 -0.5803 -0.1651  0.6319
 6300SOL    HW224389   4.168   4.205   1.016 -1.6317  0.6825  2.3604
 6300SOL     MW24390   4.101   4.187   0.963 -0.0830  0.0997  0.5229
 6301SOL     OW24391   3.271   4.096   4.501  0.0215 -0.0099 -0.3190
 6301SOL    HW124392   3.356   4.138   4.514 -0.3305  0.7873 -0.5718
 6301SOL    HW224393   3.215   4.134   4.569 -0.2921 -0.1075 -0.5256
 6301SOL     MW24394   3.275   4.106   4.512 -0.0634  0.0801 -0.3777
 6302SOL     OW24395   5.277   3.918   0.558 -0.3577 -0.1746 -0.1685
 6302SOL    HW124396   5.222   3.944   0.632  0.8110  0.7816  0.3827
 6302SOL    HW224397   5.359   3.965   0.572 -0.0620 -0.1190 -1.9782
 6302SOL     MW24398   5.280   3.928   0.569 -0.1707 -0.0448 -0.3295
 6303SOL     OW24399   1.632   1.997   0.299  0.0016 -0.8406 -0.1296
 6303SOL    HW124400   1.686   1.930   0.342  0.5445 -1.4120 -1.6790
 6303SOL    HW224401   1.669   2.004   0.211 -0.6959  0.7810 -0.2964
 6303SOL     MW24402   1.644   1.989   0.294 -0.0181 -0.7061 -0.3493
 6304SOL     OW24403   4.348   1.862   4.757 -0.5291  0.8276  0.0622
 6304SOL    HW124404   4.328   1.842   4.666 -0.9528  1.1534  0.0811
 6304SOL    HW224405   4.299   1.798   4.808 -0.3800  0.7163  0.0678
 6304SOL     MW24406   4.339   1.851   4.752 -0.5641  0.8552  0.0648
 6305SOL     OW24407   2.910   5.954   3.915 -0.7722  0.3517  0.9188
 6305SOL    HW124408   2.963   5.949   3.995  0.0129  0.2242  0.4004
 6305SOL    HW224409   2.960   6.012   3.857 -1.7081  1.0556  0.7969
 6305SOL     MW24410   2.923   5.961   3.918 -0.7915  0.4255  0.8366
 6306SOL     OW24411   1.301   2.090   5.167 -0.1581 -0.5669  0.2792
 6306SOL    HW124412   1.342   2.021   5.219  0.9840  1.4127  2.0841
 6306SOL    HW224413   1.325   2.171   5.211 -3.3221  0.8931 -0.5324
 6306SOL     MW24414   1.310   2.091   5.179 -0.4170 -0.1266  0.4067
 6307SOL     OW24415   4.404   4.102   3.995 -0.0857  0.1054  0.6513
 6307SOL    HW124416   4.393   4.155   4.074 -0.5230  1.6009 -0.3919
 6307SOL    HW224417   4.315   4.076   3.971 -0.0106  0.1759  0.2982
 6307SOL     MW24418   4.391   4.105   4.002 -0.1321  0.3061  0.4730
 6308SOL     OW24419   1.393   2.401   2.568  0.1881  0.0044 -0.2384
 6308SOL    HW124420   1.305   2.433   2.590  1.0024  0.6173  2.3083
 6308SOL    HW224421   1.409   2.332   2.632  2.0691  0.7799  0.1471
 6308SOL     MW24422   1.384   2.396   2.579  0.5331  0.1819  0.1371
 6309SOL     OW24423   4.292   5.199   1.035 -0.3002  0.0467 -0.5803
 6309SOL    HW124424   4.364   5.224   1.092  0.0129  0.7757 -1.2894
 6309SOL    HW224425   4.331   5.189   0.948 -0.7541 -1.1490 -0.6594
 6309SOL     MW24426   4.306   5.201   1.031 -0.3181 -0.0138 -0.6813
 6310SOL     OW24427   3.915   3.829   5.242  0.6304 -0.1486 -0.1783
 6310SOL    HW124428   3.967   3.883   5.183 -0.3087  1.6563  0.5841
 6310SOL    HW224429   3.921   3.873   5.327 -0.2651 -1.1815  0.4435
 6310SOL     MW24430   3.922   3.842   5.246  0.3955 -0.0501 -0.0010
 6311SOL     OW24431   4.265   3.654   3.422 -0.8831 -0.2138  0.0506
 6311SOL    HW124432   4.312   3.644   3.505  0.3316 -1.1134 -0.7312
 6311SOL    HW224433   4.268   3.748   3.403 -0.2424 -0.1438  0.4995
 6311SOL     MW24434   4.272   3.665   3.430 -0.6456 -0.3200  0.0081
 6312SOL     OW24435   3.498   1.132   3.491 -0.1760 -0.3259  0.2618
 6312SOL    HW124436   3.553   1.061   3.459  2.0525  1.8203 -0.7741
 6312SOL    HW224437   3.544   1.166   3.567 -1.8263 -0.7328  1.4567
 6312SOL     MW24438   3.511   1.127   3.496 -0.1020 -0.1034  0.2825
 6313SOL     OW24439   0.510   1.413   2.709  0.0783 -0.2321  0.2466
 6313SOL    HW124440   0.601   1.428   2.736  0.1073 -1.1201  0.6721
 6313SOL    HW224441   0.515   1.402   2.614  0.7706 -2.6697  0.5255
 6313SOL     MW24442   0.522   1.413   2.700  0.1706 -0.6579  0.3366
 6314SOL     OW24443   5.202   3.441   4.590  0.4799 -0.2581 -0.0093
 6314SOL    HW124444   5.133   3.505   4.569 -0.9232 -1.2442  1.4226
 6314SOL    HW224445   5.235   3.413   4.505 -1.1352 -0.0073 -0.7438
 6314SOL     MW24446   5.197   3.446   4.576  0.0930 -0.3521  0.0801
 6315SOL     OW24447   0.831   4.705   5.211 -0.1080  0.5431 -0.1802
 6315SOL    HW124448   0.884   4.669   5.139  2.0063  0.4587  1.3796
 6315SOL    HW224449   0.824   4.798   5.192  1.3417  0.7037  0.0485
 6315SOL     MW24450   0.837   4.712   5.199  0.3482  0.5527  0.0482
 6316SOL     OW24451   5.667   2.306   3.913  0.4369  0.5562  0.1331
 6316SOL    HW124452   5.578   2.341   3.901  0.0697 -0.7552 -1.3028
 6316SOL    HW224453   5.721   2.356   3.852 -0.0177 -1.0201 -1.6377
 6316SOL     MW24454   5.662   2.317   3.904  0.3319  0.1867 -0.2773
 6317SOL     OW24455   4.334   3.465   2.873 -0.0730  0.1128  0.6818
 6317SOL    HW124456   4.269   3.534   2.859  0.6792  0.9692  1.3365
 6317SOL    HW224457   4.282   3.385   2.884 -0.8631  0.1007 -2.6103
 6317SOL     MW24458   4.319   3.463   2.873 -0.0777  0.2205  0.3438
 6318SOL     OW24459   0.897   0.144   0.919  0.2981 -0.3307 -0.0940
 6318SOL    HW124460   0.947   0.211   0.873  1.5129 -1.4194 -0.3782
 6318SOL    HW224461   0.870   0.186   1.001  0.4613  0.7121 -0.5704
 6318SOL     MW24462   0.900   0.158   0.924  0.4745 -0.3366 -0.1914
 6319SOL     OW24463   4.291   0.084   4.691 -0.4578  0.4652 -0.7841
 6319SOL    HW124464   4.271   0.082   4.598  0.7380 -0.6607 -1.0263
 6319SOL    HW224465   4.382   0.057   4.697 -0.3011  1.2420  0.6588
 6319SOL     MW24466   4.300   0.080   4.680 -0.2847  0.4205 -0.6299
 6320SOL     OW24467   3.654   3.874   5.673  0.1958  0.6779  0.0492
 6320SOL    HW124468   3.714   3.946   5.692 -0.2470  1.1890 -0.4556
 6320SOL    HW224469   3.607   3.902   5.595 -0.5338  0.1741  0.3010
 6320SOL     MW24470   3.656   3.887   5.665  0.0455  0.6790  0.0172
 6321SOL     OW24471   1.884   4.191   5.490 -0.4446  0.6790 -0.2053
 6321SOL    HW124472   1.963   4.219   5.443  0.5094 -1.0427  0.3239
 6321SOL    HW224473   1.870   4.259   5.556  2.6572 -0.7010  2.0090
 6321SOL     MW24474   1.893   4.203   5.492  0.0745  0.2818  0.1464
 6322SOL     OW24475   3.994   2.307   0.782  0.2795  0.6071 -0.4649
 6322SOL    HW124476   4.030   2.383   0.738  0.3998  0.6281 -0.3318
 6322SOL    HW224477   3.899   2.319   0.779  0.2470  0.0714 -1.6739
 6322SOL     MW24478   3.987   2.318   0.776  0.2909  0.5412 -0.6027
 6323SOL     OW24479   2.928   3.751   5.438 -0.6531  0.5381 -0.7395
 6323SOL    HW124480   2.916   3.657   5.420  1.7404  0.0525  0.0037
 6323SOL    HW224481   2.915   3.759   5.532  1.0274  0.5952 -0.4903
 6323SOL     MW24482   2.925   3.740   5.448 -0.1314  0.4833 -0.6123
 6324SOL     OW24483   2.339   1.391   2.727 -0.2754 -0.6786  0.1103
 6324SOL    HW124484   2.344   1.460   2.661 -0.0644 -0.7071  0.0949
 6324SOL    HW224485   2.248   1.363   2.725 -0.8374  0.9878  1.5390
 6324SOL     MW24486   2.328   1.396   2.718 -0.3204 -0.4691  0.2911
 6325SOL     OW24487   2.350   0.708   1.950 -0.2187  0.5906 -0.3228
 6325SOL    HW124488   2.425   0.736   2.002 -0.8424  1.6280  0.0148
 6325SOL    HW224489   2.303   0.646   2.006 -0.9249  1.7567  0.3755
 6325SOL     MW24490   2.354   0.703   1.964 -0.3889  0.8727 -0.1901
 6326SOL     OW24491   4.353   0.428   1.002  0.5039 -0.2366 -0.3513
 6326SOL    HW124492   4.350   0.467   1.089  0.8676 -1.1952  0.0911
 6326SOL    HW224493   4.434   0.462   0.964  0.7028 -0.3697 -0.0509
 6326SOL     MW24494   4.363   0.437   1.008  0.5765 -0.3763 -0.2563
 6327SOL     OW24495   3.908   5.913   3.256 -0.0974 -0.0507  0.5587
 6327SOL    HW124496   3.920   5.933   3.163 -1.3561  1.1360  0.6308
 6327SOL    HW224497   3.842   5.976   3.285  0.7744  0.0308  2.4104
 6327SOL     MW24498   3.901   5.924   3.248 -0.1469  0.1121  0.8049
 6328SOL     OW24499   3.283   2.070   0.660 -0.5916  0.1491  0.0045
 6328SOL    HW124500   3.310   2.161   0.666 -2.8784  1.0048 -1.7024
 6328SOL    HW224501   3.192   2.069   0.690 -0.4134 -1.6695  0.5764
 6328SOL     MW24502   3.275   2.081   0.665 -0.8614  0.0255 -0.1408
 6329SOL     OW24503   0.419   5.392   2.827  0.7030  0.1779  0.6365
 6329SOL    HW124504   0.474   5.348   2.892 -1.5825 -2.7378  0.6933
 6329SOL    HW224505   0.454   5.363   2.742 -0.1045 -0.9428  0.6675
 6329SOL     MW24506   0.430   5.382   2.824  0.3071 -0.3386  0.6478
 6330SOL     OW24507   3.591   5.732   1.609  0.1444 -0.7153  0.0934
 6330SOL    HW124508   3.629   5.747   1.696 -0.7353  0.2723  0.3084
 6330SOL    HW224509   3.666   5.706   1.555  0.8926 -0.2150  0.8643
 6330SOL     MW24510   3.606   5.730   1.613  0.1271 -0.5245  0.2196
 6331SOL     OW24511   2.146   0.700   1.158 -0.2095 -0.3527  0.1208
 6331SOL    HW124512   2.230   0.739   1.135 -0.1341 -0.3617  0.3796
 6331SOL    HW224513   2.108   0.673   1.074  0.2163 -0.6899  0.0345
 6331SOL     MW24514   2.152   0.701   1.144 -0.1452 -0.3970  0.1429
 6332SOL     OW24515   3.355   3.870   3.132 -0.3812 -0.0215  0.0428
 6332SOL    HW124516   3.386   3.945   3.082  1.1373 -1.0824 -0.6497
 6332SOL    HW224517   3.260   3.880   3.134 -0.2823  1.2878 -1.0233
 6332SOL     MW24518   3.347   3.881   3.126 -0.1743  0.0103 -0.1826
 6333SOL     OW24519   2.596   2.852   4.325  0.0835 -0.1529 -0.2368
 6333SOL    HW124520   2.629   2.934   4.289  0.9880 -0.7749 -0.8492
 6333SOL    HW224521   2.522   2.878   4.380 -0.3384  0.9528 -1.3074
 6333SOL     MW24522   2.591   2.866   4.327  0.1450 -0.0911 -0.4525
 6334SOL     OW24523   0.660   5.755   5.678  0.1850  0.2769  0.5542
 6334SOL    HW124524   0.749   5.721   5.684  0.0471 -0.0528  0.7656
 6334SOL    HW224525   0.609   5.684   5.638  0.6341  1.6495 -2.5054
 6334SOL     MW24526   0.665   5.741   5.674  0.2248  0.4106  0.1893
 6335SOL     OW24527   4.899   2.737   3.631 -0.7420  0.1662 -0.2950
 6335SOL    HW124528   4.847   2.731   3.711  0.1840 -0.8336  0.2513
 6335SOL    HW224529   4.880   2.824   3.596 -0.4761  0.9715  1.4908
 6335SOL     MW24530   4.890   2.747   3.637 -0.5894  0.1411  0.0036
 6336SOL     OW24531   0.300   0.630   3.039  0.2581  0.1124  0.0979
 6336SOL    HW124532   0.297   0.537   3.062 -1.3630  0.1514  0.0946
 6336SOL    HW224533   0.394   0.650   3.034  0.6382 -1.1044  1.7205
 6336SOL     MW24534   0.312   0.620   3.041  0.0992 -0.0383  0.3049
 6337SOL     OW24535   0.909   1.512   0.529  0.2054  0.7900 -0.4414
 6337SOL    HW124536   0.998   1.500   0.563  0.4055 -0.0949 -1.2522
 6337SOL    HW224537   0.853   1.466   0.592  0.1877  2.2729  0.6711
 6337SOL     MW24538   0.914   1.505   0.542  0.2288  0.8665 -0.4027
 6338SOL     OW24539   0.119   3.882   4.183 -0.4620  0.6162  0.5048
 6338SOL    HW124540   0.199   3.849   4.141 -2.0823 -2.6784 -0.1270
 6338SOL    HW224541   0.145   3.897   4.274  1.7362  2.8842 -0.4237
 6338SOL     MW24542   0.133   3.880   4.189 -0.3880  0.4849  0.3047
 6339SOL     OW24543   4.528   4.971   2.811 -0.4359  0.1676  0.1414
 6339SOL    HW124544   4.438   4.994   2.832 -0.0282  0.9494  1.0811
 6339SOL    HW224545   4.568   4.950   2.896  0.0898 -0.8317 -0.3384
 6339SOL     MW24546   4.522   4.971   2.825 -0.3166  0.1397  0.2003
 6340SOL     OW24547   2.964   5.062   3.524  0.3562 -0.0564 -0.5598
 6340SOL    HW124548   2.978   4.968   3.515  0.2609 -0.2305  0.9657
 6340SOL    HW224549   3.019   5.087   3.599 -1.6235  0.6059  0.7172
 6340SOL     MW24550   2.973   5.053   3.533  0.0906  0.0062 -0.2010
 6341SOL     OW24551   2.253   5.432   5.676  0.1401 -0.4256 -0.0929
 6341SOL    HW124552   2.328   5.394   5.721 -0.4010  0.5134  1.6619
 6341SOL    HW224553   2.290   5.473   5.598  1.5387  0.4253  0.9917
 6341SOL     MW24554   2.268   5.432   5.672  0.2496 -0.1960  0.2704
 6342SOL     OW24555   5.013   3.746   0.386 -0.3774  0.1977 -0.3814
 6342SOL    HW124556   5.035   3.777   0.474 -0.4831 -1.9049  0.4037
 6342SOL    HW224557   5.023   3.824   0.330  0.5959  1.3310  1.3234
 6342SOL     MW24558   5.017   3.760   0.390 -0.2661  0.0734 -0.0627
 6343SOL     OW24559   2.286   4.891   0.544 -0.5203 -0.6698  0.4822
 6343SOL    HW124560   2.231   4.903   0.466 -0.4911  1.5371  0.7711
 6343SOL    HW224561   2.273   4.970   0.595  1.6074 -0.8666  1.3982
 6343SOL     MW24562   2.278   4.903   0.540 -0.2441 -0.4125  0.6365
 6344SOL     OW24563   3.827   0.740   1.567  0.5853 -0.1754  0.2416
 6344SOL    HW124564   3.831   0.798   1.492 -1.1744  0.3786  0.5685
 6344SOL    HW224565   3.813   0.653   1.530 -1.5863  0.2729 -0.0176
 6344SOL     MW24566   3.826   0.736   1.553  0.0820 -0.0471  0.2503
 6345SOL     OW24567   0.486   1.051   4.329  0.7371 -0.1977  0.5119
 6345SOL    HW124568   0.550   1.004   4.382  0.7120 -1.7443 -0.7852
 6345SOL    HW224569   0.521   1.047   4.240 -1.2479 -1.2416 -0.2488
 6345SOL     MW24570   0.498   1.045   4.325  0.4798 -0.5293  0.2484
 6346SOL     OW24571   3.411   3.123   3.090 -0.5474  0.2916  0.0848
 6346SOL    HW124572   3.411   3.218   3.106  0.2596  0.1982  0.6663
 6346SOL    HW224573   3.503   3.099   3.090 -0.7897 -0.6886  1.1674
 6346SOL     MW24574   3.423   3.132   3.092 -0.4752  0.1543  0.2978
 6347SOL     OW24575   0.395   4.144   1.633  0.1234  0.4432  0.0207
 6347SOL    HW124576   0.449   4.108   1.563  0.3625  1.3953 -0.2877
 6347SOL    HW224577   0.457   4.165   1.703 -0.0717 -0.1659  0.3870
 6347SOL     MW24578   0.410   4.142   1.633  0.1290  0.4873  0.0281
 6348SOL     OW24579   1.083   5.168   0.718  0.2068 -0.1267 -0.1469
 6348SOL    HW124580   1.028   5.091   0.725  0.3702 -0.2291  0.0259
 6348SOL    HW224581   1.162   5.137   0.674  1.5056 -0.7256  2.4842
 6348SOL     MW24582   1.086   5.154   0.713  0.3940 -0.2160  0.2120
 6349SOL     OW24583   1.839   5.915   1.490  0.1528 -0.1439 -0.1120
 6349SOL    HW124584   1.758   5.955   1.456 -0.9121 -1.8336  0.3737
 6349SOL    HW224585   1.844   5.947   1.580 -0.5510 -0.8527  0.1883
 6349SOL     MW24586   1.829   5.924   1.498 -0.0737 -0.4506 -0.0113
 6350SOL     OW24587   0.092   3.073   4.090  0.0262  0.2323  0.0161
 6350SOL    HW124588   0.061   2.995   4.044  0.1667  0.4048 -0.3808
 6350SOL    HW224589   0.049   3.070   4.175 -0.3241 -0.0384 -0.1695
 6350SOL     MW24590   0.083   3.063   4.095 -0.0007  0.2196 -0.0587
 6351SOL     OW24591   1.265   2.562   3.856 -0.3831 -0.0045 -0.2523
 6351SOL    HW124592   1.355   2.531   3.853  0.4075  2.0997  0.5080
 6351SOL    HW224593   1.238   2.549   3.947 -0.3166  0.7426 -0.1187
 6351SOL     MW24594   1.273   2.556   3.867 -0.2733  0.3607 -0.1376
 6352SOL     OW24595   4.135   3.600   2.401  0.5710  0.3534  0.6143
 6352SOL    HW124596   4.184   3.607   2.319  2.5466 -1.8764  1.5751
 6352SOL    HW224597   4.163   3.676   2.452  0.5033  0.8862 -0.1186
 6352SOL     MW24598   4.145   3.611   2.397  0.8144  0.1361  0.6435
 6353SOL     OW24599   3.666   3.316   0.785  0.1974 -0.0071 -0.0825
 6353SOL    HW124600   3.687   3.407   0.807  0.0502 -0.6227  2.7937
 6353SOL    HW224601   3.617   3.322   0.704  2.0432  2.3170 -1.0900
 6353SOL     MW24602   3.663   3.328   0.778  0.4148  0.2117  0.1567
 6354SOL     OW24603   4.648   1.941   0.736 -0.6447  0.2359  0.3723
 6354SOL    HW124604   4.728   1.894   0.712  0.4749  1.5027  1.5228
 6354SOL    HW224605   4.616   1.895   0.814 -1.6147 -0.8843 -0.6586
 6354SOL     MW24606   4.654   1.929   0.743 -0.6247  0.2546  0.3876
 6355SOL     OW24607   5.062   1.469   0.771 -0.2195 -0.7896  0.3672
 6355SOL    HW124608   4.987   1.472   0.711 -0.6633 -0.0123  0.9391
 6355SOL    HW224609   5.138   1.475   0.715 -0.6596  1.5708 -0.0598
 6355SOL     MW24610   5.062   1.470   0.756 -0.3328 -0.3879  0.3858
 6356SOL     OW24611   5.074   3.888   3.850 -0.7266 -0.2910 -0.7720
 6356SOL    HW124612   5.054   3.975   3.886  0.3229 -1.3761  2.6238
 6356SOL    HW224613   4.988   3.850   3.833 -1.1940  1.6055 -2.8792
 6356SOL     MW24614   5.060   3.895   3.852 -0.6518 -0.1872 -0.6070
 6357SOL     OW24615   1.098   5.736   1.923  0.0860  0.7164  0.4107
 6357SOL    HW124616   1.139   5.808   1.876 -0.1564  0.0013 -0.9169
 6357SOL    HW224617   1.043   5.779   1.989  1.9370  1.6905  1.3551
 6357SOL     MW24618   1.096   5.751   1.926  0.2919  0.7496  0.3617
 6358SOL     OW24619   2.432   1.027   1.199  0.5011 -0.3543  0.2805
 6358SOL    HW124620   2.488   0.972   1.254  0.0863 -0.6483  0.4091
 6358SOL    HW224621   2.347   1.026   1.242 -0.0764 -1.3168 -0.8399
 6358SOL     MW24622   2.428   1.019   1.211  0.3741 -0.5151  0.1535
 6359SOL     OW24623   1.303   3.201   1.006 -0.5019  0.0224  0.0818
 6359SOL    HW124624   1.216   3.241   1.003 -0.3277  0.5069  1.0639
 6359SOL    HW224625   1.285   3.107   1.017 -0.9100 -0.1734 -2.1423
 6359SOL     MW24626   1.289   3.194   1.007 -0.5319  0.0591 -0.0772
 6360SOL     OW24627   5.372   3.029   1.684 -0.1593 -0.2149  0.2553
 6360SOL    HW124628   5.424   2.981   1.748  1.2370  0.1098 -0.6096
 6360SOL    HW224629   5.390   2.986   1.600 -2.6833 -1.2127  0.1831
 6360SOL     MW24630   5.381   3.017   1.681 -0.3037 -0.3011  0.1353
 6361SOL     OW24631   5.149   0.806   2.933  0.5335 -0.1433 -0.1223
 6361SOL    HW124632   5.218   0.865   2.903  0.6195 -1.5152 -2.8127
 6361SOL    HW224633   5.170   0.722   2.890 -0.3064 -1.7815  2.5588
 6361SOL     MW24634   5.161   0.803   2.923  0.4373 -0.5286 -0.1235
 6362SOL     OW24635   3.425   1.301   4.689 -0.3599 -1.0422  0.1619
 6362SOL    HW124636   3.471   1.223   4.716  0.5875 -0.4844  0.1648
 6362SOL    HW224637   3.372   1.326   4.765 -0.4792 -1.5279  0.2415
 6362SOL     MW24638   3.424   1.295   4.702 -0.2539 -1.0331  0.1721
 6363SOL     OW24639   5.320   4.590   1.378 -0.3253 -0.1145 -0.4373
 6363SOL    HW124640   5.357   4.645   1.447 -0.0668 -0.6295 -0.1666
 6363SOL    HW224641   5.246   4.641   1.344 -3.1122 -1.6606  3.0715
 6363SOL     MW24642   5.315   4.604   1.382 -0.6490 -0.3786  0.0465
 6364SOL     OW24643   4.509   3.984   2.623 -0.1334  0.4975  0.3773
 6364SOL    HW124644   4.549   4.066   2.650 -2.7627  1.5114  1.4196
 6364SOL    HW224645   4.425   4.010   2.585  0.2840 -1.5002 -2.0547
 6364SOL     MW24646   4.503   3.997   2.622 -0.4168  0.3717  0.1996
 6365SOL     OW24647   2.121   0.114   0.362 -0.1497  0.0324  0.6297
 6365SOL    HW124648   2.180   0.179   0.401 -0.2057  0.1668  0.4908
 6365SOL    HW224649   2.109   0.048   0.431  1.6635 -0.9778  0.0277
 6365SOL     MW24650   2.127   0.114   0.376  0.0753 -0.0797  0.5348
 6366SOL     OW24651   2.249   2.627   2.198 -0.1097  0.7841 -0.1459
 6366SOL    HW124652   2.304   2.656   2.271 -1.5887  0.6246  1.0591
 6366SOL    HW224653   2.184   2.697   2.188  1.1111  1.6434 -2.4740
 6366SOL     MW24654   2.248   2.640   2.206 -0.1431  0.8736 -0.2897
 6367SOL     OW24655   4.573   5.047   2.370  0.6641  0.2907  0.0493
 6367SOL    HW124656   4.480   5.043   2.393  0.7995  1.6692  0.8400
 6367SOL    HW224657   4.607   4.961   2.395 -0.5114 -0.4241 -0.7658
 6367SOL     MW24658   4.565   5.035   2.376  0.5312  0.3757  0.0463
 6368SOL     OW24659   0.076   3.717   5.207  0.0117  0.1239  0.2477
 6368SOL    HW124660   0.031   3.644   5.164  0.1326  0.6033 -0.7070
 6368SOL    HW224661   0.115   3.767   5.135 -2.0406  2.4624  0.6832
 6368SOL     MW24662   0.076   3.714   5.192 -0.2355  0.4845  0.1812
 6369SOL     OW24663   5.169   2.135   5.051  0.2054  0.3944 -0.5280
 6369SOL    HW124664   5.095   2.118   4.992 -1.4388 -2.0324  2.0622
 6369SOL    HW224665   5.160   2.227   5.076 -1.0937  0.5144 -1.3820
 6369SOL     MW24666   5.158   2.144   5.047 -0.1717  0.0994 -0.3061
 6370SOL     OW24667   0.660   0.808   4.007  0.5749 -0.0767  0.0976
 6370SOL    HW124668   0.662   0.713   4.017 -0.2465 -0.1722 -0.5279
 6370SOL    HW224669   0.751   0.833   3.992  0.8036 -0.7514  0.3473
 6370SOL     MW24670   0.672   0.799   4.006  0.4990 -0.1752  0.0501
 6371SOL     OW24671   1.514   5.430   3.027  0.2585 -0.4609  0.1542
 6371SOL    HW124672   1.509   5.338   3.051 -1.9220 -0.5238 -0.4007
 6371SOL    HW224673   1.573   5.469   3.092  2.0757 -2.4359 -0.2913
 6371SOL     MW24674   1.521   5.423   3.038  0.2120 -0.7219  0.0262
 6372SOL     OW24675   4.256   5.679   4.076 -0.1985  0.4541  0.2637
 6372SOL    HW124676   4.176   5.688   4.023  0.5833 -0.5303 -1.1181
 6372SOL    HW224677   4.254   5.754   4.135 -1.1741  1.5086 -1.0673
 6372SOL     MW24678   4.245   5.689   4.077 -0.2232  0.4630 -0.0834
 6373SOL     OW24679   2.487   2.210   0.926  0.3721 -0.2808 -0.4702
 6373SOL    HW124680   2.543   2.287   0.928  0.4146 -0.3368  0.5940
 6373SOL    HW224681   2.407   2.239   0.883  0.1380  0.5230  0.4996
 6373SOL     MW24682   2.484   2.223   0.921  0.3476 -0.1850 -0.2099
 6374SOL     OW24683   0.515   0.090   0.357  0.4075 -0.2765 -0.1937
 6374SOL    HW124684   0.540   0.110   0.267 -0.7065  5.2158  0.5028
 6374SOL    HW224685   0.579   0.137   0.410  0.3513 -2.4839  1.9081
 6374SOL     MW24686   0.526   0.099   0.352  0.2577  0.1440  0.1645
 6375SOL     OW24687   2.022   2.599   1.060  0.1047  0.6010 -0.1454
 6375SOL    HW124688   1.959   2.668   1.084 -0.1193  0.1662  0.5441
 6375SOL    HW224689   2.090   2.605   1.128  1.2421  1.6037 -1.3413
 6375SOL     MW24690   2.023   2.609   1.072  0.2215  0.6738 -0.2102
 6376SOL     OW24691   5.285   2.915   4.521 -0.4428 -0.1414 -0.2215
 6376SOL    HW124692   5.256   2.992   4.570  0.4058 -1.0437  1.8011
 6376SOL    HW224693   5.205   2.879   4.483 -0.8562  1.6452 -1.0456
 6376SOL     MW24694   5.271   2.920   4.523 -0.3872 -0.0281 -0.0677
 6377SOL     OW24695   3.047   4.248   0.388 -0.3847 -0.2498 -0.8412
 6377SOL    HW124696   3.007   4.209   0.310 -0.4569 -1.4715 -0.2155
 6377SOL    HW224697   3.126   4.196   0.403 -0.7482 -0.5050  0.3045
 6377SOL     MW24698   3.052   4.236   0.380 -0.4406 -0.4387 -0.6144
 6378SOL     OW24699   2.713   4.420   0.143 -0.3121 -0.4799  0.2376
 6378SOL    HW124700   2.784   4.484   0.147  1.2620 -1.8322 -3.7710
 6378SOL    HW224701   2.757   4.336   0.138 -2.2011 -1.4117 -1.1598
 6378SOL     MW24702   2.727   4.418   0.143 -0.3524 -0.7725 -0.4544
 6379SOL     OW24703   5.409   4.158   3.215  0.1336 -0.3400  0.0766
 6379SOL    HW124704   5.436   4.211   3.140  2.0344 -0.3108  0.7551
 6379SOL    HW224705   5.343   4.211   3.260 -0.7574 -0.2088 -1.3755
 6379SOL     MW24706   5.404   4.171   3.211  0.2627 -0.3195 -0.0224
 6380SOL     OW24707   5.340   0.221   2.322  0.3964 -0.2192 -0.4836
 6380SOL    HW124708   5.317   0.304   2.281 -0.1945 -0.8756 -1.4991
 6380SOL    HW224709   5.329   0.156   2.253 -1.6226 -1.4877  0.9793
 6380SOL     MW24710   5.335   0.223   2.308  0.0620 -0.4656 -0.4263
 6381SOL     OW24711   3.380   2.771   3.223 -0.6220 -0.0528 -0.4847
 6381SOL    HW124712   3.301   2.719   3.210  0.2043 -0.8272 -2.6762
 6381SOL    HW224713   3.348   2.860   3.238 -1.9820 -0.8262  1.3597
 6381SOL     MW24714   3.366   2.776   3.223 -0.6905 -0.2511 -0.5293
 6382SOL     OW24715   0.315   2.199   3.993 -0.5771 -0.4096 -0.1999
 6382SOL    HW124716   0.314   2.287   4.029  1.2784 -0.3641 -0.1753
 6382SOL    HW224717   0.281   2.209   3.904 -2.2895 -0.0160  0.4935
 6382SOL     MW24718   0.311   2.212   3.986 -0.5588 -0.3533 -0.1080
 6383SOL     OW24719   1.369   0.684   0.575 -0.4443 -0.5020 -0.3693
 6383SOL    HW124720   1.324   0.600   0.589  0.2903 -0.6703  1.0440
 6383SOL    HW224721   1.426   0.694   0.651 -2.6811  2.7160  0.9828
 6383SOL     MW24722   1.371   0.674   0.586 -0.6366 -0.1116 -0.0153
 6384SOL     OW24723   5.481   2.330   5.509 -0.7755  0.2909  0.0765
 6384SOL    HW124724   5.524   2.319   5.424  1.5769  0.9896  1.1469
 6384SOL    HW224725   5.507   2.417   5.539 -0.5652 -0.4209  2.0708
 6384SOL     MW24726   5.490   2.340   5.502 -0.4473  0.2892  0.4683
 6385SOL     OW24727   5.157   4.169   3.709  0.2700  0.3199 -0.1878
 6385SOL    HW124728   5.148   4.244   3.650  0.2292  0.1080 -0.4528
 6385SOL    HW224729   5.244   4.180   3.748  0.3550  0.3868 -0.3918
 6385SOL     MW24730   5.167   4.180   3.706  0.2761  0.3014 -0.2475
 6386SOL     OW24731   4.313   4.277   1.094 -0.1717 -0.1849  0.2020
 6386SOL    HW124732   4.287   4.352   1.148  0.4224  0.7147 -0.7232
 6386SOL    HW224733   4.391   4.308   1.047  0.3929 -1.5733  0.2065
 6386SOL     MW24734   4.320   4.291   1.095 -0.0234 -0.2480  0.0840
 6387SOL     OW24735   3.681   0.179   1.175  0.4779  0.4611  0.1385
 6387SOL    HW124736   3.587   0.198   1.173  0.7305  1.6747 -1.0281
 6387SOL    HW224737   3.687   0.086   1.153 -0.5479 -0.0834  2.0218
 6387SOL     MW24738   3.669   0.170   1.172  0.3788  0.5467  0.2302
 6388SOL     OW24739   5.519   4.980   4.030 -0.5482 -0.0825 -0.0234
 6388SOL    HW124740   5.503   5.056   4.086 -1.3875 -1.9803  2.3952
 6388SOL    HW224741   5.434   4.964   3.987 -0.8979 -0.7482  0.8952
 6388SOL     MW24742   5.506   4.987   4.032 -0.7005 -0.4106  0.4039
 6389SOL     OW24743   4.017   3.533   3.483  0.5382  0.1180  0.0178
 6389SOL    HW124744   4.083   3.594   3.451 -0.3617  1.1786  0.1893
 6389SOL    HW224745   4.066   3.475   3.542  1.4898  0.3499 -0.5247
 6389SOL     MW24746   4.032   3.533   3.486  0.5450  0.2835 -0.0296
 6390SOL     OW24747   4.646   5.366   5.320 -0.4933  0.1019 -0.7510
 6390SOL    HW124748   4.717   5.392   5.263  0.2282 -1.6223 -0.6528
 6390SOL    HW224749   4.670   5.401   5.406  0.0808 -0.2345 -0.7795
 6390SOL     MW24750   4.658   5.374   5.324 -0.3271 -0.1621 -0.7420
 6391SOL     OW24751   0.536   5.542   4.457  0.7212  0.3514 -0.8764
 6391SOL    HW124752   0.558   5.499   4.539  0.4331  0.5304 -0.7040
 6391SOL    HW224753   0.492   5.623   4.483 -1.4176 -0.6760 -1.1996
 6391SOL     MW24754   0.533   5.547   4.471  0.4106  0.2427 -0.8960
 6392SOL     OW24755   2.647   3.054   2.445 -0.3285 -0.5807  0.0516
 6392SOL    HW124756   2.575   3.015   2.395 -0.6395  1.1921 -0.9041
 6392SOL    HW224757   2.651   3.002   2.525 -0.3481 -2.9428 -1.4476
 6392SOL     MW24758   2.638   3.042   2.449 -0.3707 -0.6561 -0.2627
 6393SOL     OW24759   1.807   5.748   2.786 -0.3300 -0.5861  0.1261
 6393SOL    HW124760   1.860   5.669   2.797 -0.2143 -0.5259  0.0065
 6393SOL    HW224761   1.727   5.717   2.743  0.0793 -0.5126 -0.7063
 6393SOL     MW24762   1.804   5.734   2.782 -0.2629 -0.5689  0.0041
 6394SOL     OW24763   5.676   2.129   3.246  0.3085  0.0845 -0.0417
 6394SOL    HW124764   5.685   2.067   3.174 -0.7406  0.1561 -0.2429
 6394SOL    HW224765   5.713   2.084   3.322 -0.7389 -0.9218 -0.1174
 6394SOL     MW24766   5.682   2.115   3.246  0.0401 -0.0350 -0.0772
 6395SOL     OW24767   5.932   1.225   5.235 -0.7514  0.6461 -0.0635
 6395SOL    HW124768   5.966   1.136   5.243 -1.8037  0.3434  1.2035
 6395SOL    HW224769   5.866   1.220   5.166  0.7137  0.9223 -1.5080
 6395SOL     MW24770   5.928   1.213   5.227 -0.6986  0.6427 -0.0863
 6396SOL     OW24771   3.487   5.122   0.826  0.1227 -0.4581  0.1013
 6396SOL    HW124772   3.445   5.170   0.755  0.6084  0.0610  0.1570
 6396SOL    HW224773   3.560   5.076   0.783  0.8820  0.4642  0.3832
 6396SOL     MW24774   3.491   5.123   0.811  0.2820 -0.2742  0.1446
 6397SOL     OW24775   4.310   4.965   5.140  0.1068 -0.4715 -0.1445
 6397SOL    HW124776   4.354   4.905   5.079  0.3881 -1.6324  1.1854
 6397SOL    HW224777   4.360   4.957   5.222 -0.0151  1.3856  0.1338
 6397SOL     MW24778   4.322   4.956   5.143  0.1268 -0.3824  0.0606
 6398SOL     OW24779   2.916   0.125   4.370 -0.3982  0.3116 -0.2306
 6398SOL    HW124780   2.910   0.173   4.452  3.0625 -1.2473  1.0184
 6398SOL    HW224781   2.869   0.043   4.388  1.2685 -0.4821  0.5759
 6398SOL     MW24782   2.909   0.120   4.383  0.2582  0.0105  0.0324
 6399SOL     OW24783   4.377   1.960   0.270 -0.2847  0.2506 -0.4534
 6399SOL    HW124784   4.409   2.020   0.337  0.1926  0.1596 -0.5963
 6399SOL    HW224785   4.443   1.891   0.267 -0.6708 -0.1179 -0.5122
 6399SOL     MW24786   4.390   1.959   0.278 -0.2732  0.1918 -0.4793
 6400SOL     OW24787   2.771   4.877   1.416  0.3057 -0.4322  0.1378
 6400SOL    HW124788   2.815   4.794   1.395 -1.8014 -1.1618 -1.6132
 6400SOL    HW224789   2.715   4.856   1.490  0.5304 -0.3055  0.3447
 6400SOL     MW24790   2.770   4.863   1.422  0.0646 -0.5093 -0.0600
 6401SOL     OW24791   1.745   0.292   3.851 -0.0452  0.1663 -0.5943
 6401SOL    HW124792   1.661   0.279   3.896 -0.3928 -0.7139 -1.4864
 6401SOL    HW224793   1.796   0.347   3.911 -1.5532  1.3783 -0.3998
 6401SOL     MW24794   1.741   0.298   3.864 -0.2828  0.2087 -0.6838
 6402SOL     OW24795   4.464   2.152   0.442  0.1499  0.0639  0.3827
 6402SOL    HW124796   4.555   2.164   0.416  0.2720  0.1449  0.8563
 6402SOL    HW224797   4.467   2.140   0.537 -0.3629  0.3787  0.4384
 6402SOL     MW24798   4.476   2.152   0.450  0.0997  0.1144  0.4505
 6403SOL     OW24799   5.913   4.236   5.055  0.2012 -0.5084 -0.3350
 6403SOL    HW124800   5.937   4.219   4.964  1.2120  1.0421 -0.3826
 6403SOL    HW224801   5.958   4.169   5.106 -1.4874 -2.2509 -1.0749
 6403SOL     MW24802   5.922   4.226   5.050  0.1144 -0.5336 -0.4358
 6404SOL     OW24803   4.402   5.595   0.202 -0.4156  0.3639  0.5255
 6404SOL    HW124804   4.350   5.534   0.149 -0.0197  0.8976 -0.4881
 6404SOL    HW224805   4.399   5.558   0.290 -1.2610 -0.4248  0.1791
 6404SOL     MW24806   4.395   5.582   0.206 -0.4735  0.3309  0.3514
 6405SOL     OW24807   1.599   1.014   2.325 -0.3171 -0.0810 -0.2995
 6405SOL    HW124808   1.627   0.984   2.412 -1.2917 -1.0040 -0.2825
 6405SOL    HW224809   1.522   0.960   2.306  0.1637 -0.1946 -1.9344
 6405SOL     MW24810   1.592   1.003   2.334 -0.3803 -0.2137 -0.5066
 6406SOL     OW24811   5.814   4.982   1.524 -0.5630 -0.3381  0.1895
 6406SOL    HW124812   5.829   5.068   1.486  0.0398 -0.6433 -0.2726
 6406SOL    HW224813   5.787   4.927   1.450 -0.0051 -0.7749  0.3008
 6406SOL     MW24814   5.813   4.986   1.510 -0.4144 -0.4334  0.1445
 6407SOL     OW24815   5.267   0.460   2.204 -1.4622 -0.3993  0.0083
 6407SOL    HW124816   5.230   0.518   2.271 -0.9958  1.5806 -1.3942
 6407SOL    HW224817   5.270   0.514   2.125  1.1920 -1.5748 -0.7646
 6407SOL     MW24818   5.263   0.474   2.203 -1.0629 -0.2964 -0.2701
 6408SOL     OW24819   3.426   5.474   2.045 -0.1062 -0.4568 -0.3691
 6408SOL    HW124820   3.418   5.525   2.125 -0.5595 -0.6771 -0.2756
 6408SOL    HW224821   3.507   5.424   2.057 -0.3286 -0.7073  0.0722
 6408SOL     MW24822   3.436   5.474   2.056 -0.1926 -0.5169 -0.3006
 6409SOL     OW24823   2.130   1.204   3.358  0.4509 -0.2290 -0.3916
 6409SOL    HW124824   2.064   1.144   3.392  1.0914 -0.1032  1.1359
 6409SOL    HW224825   2.090   1.290   3.363  0.6486 -0.1724  0.3875
 6409SOL     MW24826   2.117   1.207   3.363  0.5584 -0.2056 -0.0961
 6410SOL     OW24827   3.796   2.614   1.338 -0.0212 -0.1569 -0.6848
 6410SOL    HW124828   3.772   2.619   1.246  0.6187 -1.0806 -0.9074
 6410SOL    HW224829   3.729   2.560   1.378  0.7917 -1.4193 -1.0014
 6410SOL     MW24830   3.785   2.608   1.331  0.1650 -0.4368 -0.7539
 6411SOL     OW24831   5.640   3.192   2.738 -0.0737  0.6811 -0.1660
 6411SOL    HW124832   5.603   3.216   2.823 -1.2970 -1.0193 -0.1862
 6411SOL    HW224833   5.570   3.207   2.675  1.1667  2.9294 -1.0505
 6411SOL     MW24834   5.626   3.197   2.741 -0.0720  0.7510 -0.2818
 6412SOL     OW24835   3.962   3.129   5.024 -0.4697  0.2955 -0.4699
 6412SOL    HW124836   3.953   3.089   5.110 -0.3806  0.3307 -0.4441
 6412SOL    HW224837   3.977   3.055   4.965 -1.6949  0.1628 -0.6309
 6412SOL     MW24838   3.963   3.115   5.027 -0.6149  0.2830 -0.4873
 6413SOL     OW24839   0.462   3.332   3.990 -0.4043  0.1087  0.1275
 6413SOL    HW124840   0.459   3.427   3.999 -2.2449 -0.0425  1.4607
 6413SOL    HW224841   0.534   3.305   4.046 -0.1853  0.6891  0.1259
 6413SOL     MW24842   0.471   3.340   3.999 -0.6119  0.1638  0.2980
 6414SOL     OW24843   4.074   2.992   0.466 -0.3140 -0.0626  0.0042
 6414SOL    HW124844   4.058   3.031   0.552  0.2125 -0.1174  0.1293
 6414SOL    HW224845   4.035   3.054   0.404  1.1560  1.0639  0.1520
 6414SOL     MW24846   4.067   3.005   0.469 -0.0582  0.0744  0.0391
 6415SOL     OW24847   1.762   0.532   1.175 -0.1529 -0.2664  0.6298
 6415SOL    HW124848   1.775   0.483   1.256 -0.7366 -0.3680  0.6695
 6415SOL    HW224849   1.770   0.624   1.201 -1.0539 -0.2704  0.9519
 6415SOL     MW24850   1.764   0.538   1.189 -0.3428 -0.2799  0.6762
 6416SOL     OW24851   3.571   1.361   3.332  0.0554 -1.1506 -0.2582
 6416SOL    HW124852   3.545   1.292   3.394 -0.7865 -0.9453 -0.3743
 6416SOL    HW224853   3.535   1.441   3.370  1.5224 -0.6786  0.1746
 6416SOL     MW24854   3.563   1.362   3.345  0.1354 -1.0639 -0.2177
 6417SOL     OW24855   4.366   5.196   0.766 -0.1249 -0.2419  0.2743
 6417SOL    HW124856   4.425   5.140   0.715 -1.0183  0.2533 -1.3413
 6417SOL    HW224857   4.279   5.159   0.750 -0.6342  1.1375 -0.1904
 6417SOL     MW24858   4.363   5.184   0.757 -0.3047 -0.0019  0.0079
 6418SOL     OW24859   4.634   3.771   1.627  0.3965 -0.3843  0.2991
 6418SOL    HW124860   4.611   3.680   1.609 -2.4930  0.1292  1.0906
 6418SOL    HW224861   4.711   3.787   1.574 -0.2803 -2.6862 -1.4773
 6418SOL     MW24862   4.641   3.761   1.618 -0.0601 -0.6130  0.1730
 6419SOL     OW24863   0.102   5.420   5.540 -0.5508 -0.3282  0.4311
 6419SOL    HW124864   0.123   5.500   5.492 -0.1562 -0.5707  0.2034
 6419SOL    HW224865   0.006   5.420   5.545 -0.4668  1.5822  2.8313
 6419SOL     MW24866   0.092   5.430   5.535 -0.4895 -0.1144  0.7095
 6420SOL     OW24867   5.624   2.576   5.541 -0.2123  0.3466 -0.1389
 6420SOL    HW124868   5.640   2.614   5.628 -0.2365  0.1224 -0.0377
 6420SOL    HW224869   5.700   2.521   5.524 -1.8828 -2.4925  1.3030
 6420SOL     MW24870   5.635   2.574   5.550 -0.4292 -0.0453  0.0582
 6421SOL     OW24871   3.698   0.388   4.017  0.1684  0.2011 -0.1304
 6421SOL    HW124872   3.782   0.405   3.974 -0.0832 -1.2557 -1.2626
 6421SOL    HW224873   3.686   0.293   4.008 -0.7785  0.1490  1.5481
 6421SOL     MW24874   3.707   0.378   4.010  0.0148  0.0079 -0.0601
 6422SOL     OW24875   5.067   2.984   3.405 -0.0370  0.0678  0.8360
 6422SOL    HW124876   5.102   2.902   3.441 -0.1562 -0.2290  0.2744
 6422SOL    HW224877   5.006   2.956   3.337 -2.1061  0.5433  2.4389
 6422SOL     MW24878   5.063   2.970   3.401 -0.3176  0.0908  0.9694
 6423SOL     OW24879   4.478   1.482   5.160 -0.2449  0.2891  0.6428
 6423SOL    HW124880   4.415   1.503   5.229 -1.5297 -3.3375  0.6969
 6423SOL    HW224881   4.435   1.511   5.079 -0.0828  1.7272  1.0582
 6423SOL     MW24882   4.465   1.488   5.158 -0.3881  0.0089  0.7029
 6424SOL     OW24883   2.702   5.508   3.397 -0.2369 -0.3281  0.2193
 6424SOL    HW124884   2.694   5.525   3.303 -0.1992 -0.0784  0.2594
 6424SOL    HW224885   2.783   5.553   3.423  2.0087 -3.8723 -0.4127
 6424SOL     MW24886   2.711   5.516   3.388  0.0553 -0.7501  0.1438
 6425SOL     OW24887   5.108   0.718   4.678 -0.1371  0.4509 -0.2189
 6425SOL    HW124888   5.115   0.744   4.586 -0.3022  1.5179  0.0565
 6425SOL    HW224889   5.167   0.778   4.724  0.7266 -0.7558  0.2476
 6425SOL     MW24890   5.116   0.729   4.672 -0.0477  0.4331 -0.1240
 6426SOL     OW24891   5.181   0.838   0.286 -0.1466 -0.6328 -0.6966
 6426SOL    HW124892   5.271   0.867   0.295  0.0753 -1.7071  0.9267
 6426SOL    HW224893   5.135   0.912   0.246  1.3823  0.0408 -1.2228
 6426SOL     MW24894   5.186   0.851   0.282  0.0777 -0.6841 -0.5562
 6427SOL     OW24895   2.583   1.285   4.296 -0.2816 -0.4937  0.1391
 6427SOL    HW124896   2.576   1.190   4.291 -1.6956 -0.3237 -1.6825
 6427SOL    HW224897   2.601   1.312   4.206 -1.1489  1.0530  0.4153
 6427SOL     MW24898   2.584   1.276   4.284 -0.5736 -0.2739 -0.0587
 6428SOL     OW24899   2.494   5.278   4.793  0.0537  0.3961 -0.4445
 6428SOL    HW124900   2.574   5.232   4.767 -0.2767 -0.3668 -0.1063
 6428SOL    HW224901   2.431   5.209   4.811 -1.1406  1.0195 -2.1203
 6428SOL     MW24902   2.496   5.263   4.792 -0.1411  0.3781 -0.6151
 6429SOL     OW24903   5.246   5.555   2.114  0.5576  0.3221  0.4407
 6429SOL    HW124904   5.168   5.557   2.170  0.8443 -0.2759  0.8660
 6429SOL    HW224905   5.319   5.573   2.173  0.9506 -1.1659  0.4241
 6429SOL     MW24906   5.245   5.558   2.128  0.6442  0.0548  0.4930
 6430SOL     OW24907   3.742   2.310   3.206  0.1094 -0.3684  0.2594
 6430SOL    HW124908   3.795   2.240   3.168 -0.2883  0.1911 -1.3520
 6430SOL    HW224909   3.754   2.385   3.148  1.6807  1.3991  2.7628
 6430SOL     MW24910   3.750   2.311   3.194  0.2596 -0.0708  0.3736
 6431SOL     OW24911   4.934   3.245   2.064 -1.0500  0.0670 -0.0728
 6431SOL    HW124912   4.979   3.263   2.147  2.8780 -2.0283 -1.5867
 6431SOL    HW224913   4.855   3.299   2.067  0.9893  3.1111  3.2681
 6431SOL     MW24914   4.930   3.254   2.075 -0.2861  0.1884  0.1609
 6432SOL     OW24915   5.155   4.680   3.187  0.2403 -0.8086 -0.1701
 6432SOL    HW124916   5.077   4.625   3.175  0.3904 -0.7136 -1.6517
 6432SOL    HW224917   5.173   4.716   3.100  1.8321 -0.6733  0.2006
 6432SOL     MW24918   5.147   4.678   3.174  0.4630 -0.7792 -0.3126
 6433SOL     OW24919   0.178   3.314   0.935 -0.1046  0.2668 -0.5105
 6433SOL    HW124920   0.155   3.359   1.016  1.8933 -1.7673  1.2391
 6433SOL    HW224921   0.255   3.360   0.903  1.7087 -1.5410  1.0795
 6433SOL     MW24922   0.185   3.325   0.941  0.3833 -0.2251 -0.0830
 6434SOL     OW24923   5.333   2.837   2.752  0.3388  0.1271 -0.5456
 6434SOL    HW124924   5.388   2.776   2.802  0.4057 -0.9494 -1.9192
 6434SOL    HW224925   5.371   2.837   2.664 -1.7325 -0.4753 -1.4561
 6434SOL     MW24926   5.345   2.829   2.747  0.0825 -0.0877 -0.8380
 6435SOL     OW24927   1.391   3.845   0.961 -0.4807  0.2367 -0.3424
 6435SOL    HW124928   1.398   3.755   0.928 -2.1452  0.2701 -0.8044
 6435SOL    HW224929   1.297   3.859   0.973 -0.1176  1.2740  1.5133
 6435SOL     MW24930   1.380   3.835   0.959 -0.6473  0.3738 -0.1640
 6436SOL     OW24931   4.665   3.981   2.973  0.1015  0.5847 -0.0571
 6436SOL    HW124932   4.639   3.944   3.058  0.7133 -1.7942 -0.8666
 6436SOL    HW224933   4.629   4.070   2.974  0.4728  0.7489  2.8629
 6436SOL     MW24934   4.657   3.988   2.984  0.2265  0.3011  0.2131
 6437SOL     OW24935   2.908   3.591   1.291  0.1369 -0.6255  0.2408
 6437SOL    HW124936   2.875   3.541   1.216  1.0765 -1.1713  0.1856
 6437SOL    HW224937   2.880   3.541   1.367 -1.5653  0.3818  0.2955
 6437SOL     MW24938   2.900   3.578   1.291  0.0391 -0.5665  0.2407
 6438SOL     OW24939   4.978   5.900   1.569 -0.3932  0.1283 -0.3269
 6438SOL    HW124940   4.985   5.872   1.660  0.8091  0.3205 -0.3463
 6438SOL    HW224941   5.053   5.959   1.557 -1.2596  1.1003 -1.0789
 6438SOL     MW24942   4.989   5.904   1.579 -0.3505  0.2775 -0.4257
 6439SOL     OW24943   0.095   1.080   0.233  0.0850  0.4371 -0.0193
 6439SOL    HW124944   0.084   0.988   0.209  0.8323  0.8317 -1.9189
 6439SOL    HW224945   0.033   1.127   0.178 -0.4853  1.0670  1.1314
 6439SOL     MW24946   0.085   1.074   0.223  0.1076  0.5682 -0.1151
 6440SOL     OW24947   0.240   1.091   1.536  0.0163 -0.7528 -0.1221
 6440SOL    HW124948   0.265   1.085   1.628 -1.6354  0.8140  0.4609
 6440SOL    HW224949   0.170   1.026   1.525 -0.7715  0.0493  0.0937
 6440SOL     MW24950   0.234   1.082   1.546 -0.2959 -0.4495 -0.0199
 6441SOL     OW24951   5.633   4.171   5.322 -0.0096 -0.4114 -0.4714
 6441SOL    HW124952   5.713   4.160   5.373 -0.3749  0.4060  0.2854
 6441SOL    HW224953   5.569   4.114   5.365 -0.1999 -0.0548 -0.2838
 6441SOL     MW24954   5.635   4.162   5.334 -0.0806 -0.2613 -0.3510
 6442SOL     OW24955   2.955   0.755   0.505  0.1328 -0.0625 -0.2897
 6442SOL    HW124956   3.012   0.783   0.433  0.6281  1.1109  0.5545
 6442SOL    HW224957   2.910   0.677   0.470  1.4436 -0.3779 -1.3404
 6442SOL     MW24958   2.956   0.748   0.491  0.3641  0.0474 -0.3161
 6443SOL     OW24959   3.908   3.777   3.655  0.3898  0.4927  0.0995
 6443SOL    HW124960   3.940   3.705   3.601 -0.4675 -0.9054  1.4343
 6443SOL    HW224961   3.955   3.768   3.737  1.5102  2.4735 -0.2857
 6443SOL     MW24962   3.918   3.767   3.658  0.4237  0.5672  0.2210
 6444SOL     OW24963   1.458   0.427   4.722 -0.6232  0.3849  0.0242
 6444SOL    HW124964   1.474   0.335   4.700 -2.6927  0.1270 -0.5007
 6444SOL    HW224965   1.391   0.456   4.660 -1.7912  1.5258  1.7554
 6444SOL     MW24966   1.451   0.419   4.712 -1.0377  0.4979  0.1783
 6445SOL     OW24967   4.081   2.976   3.496  0.1970 -0.1229  0.0875
 6445SOL    HW124968   4.099   2.979   3.402 -0.9249  1.0139 -0.1126
 6445SOL    HW224969   4.102   2.886   3.522  2.1993  0.0434 -0.8858
 6445SOL     MW24970   4.086   2.965   3.487  0.3099  0.0436 -0.0627
 6446SOL     OW24971   4.834   2.495   2.128 -0.0005  0.1033  0.1833
 6446SOL    HW124972   4.781   2.555   2.180  0.4149 -1.1727  2.1242
 6446SOL    HW224973   4.784   2.413   2.129 -0.3003  0.2310 -1.9958
 6446SOL     MW24974   4.821   2.492   2.135  0.0143 -0.0439  0.1528
 6447SOL     OW24975   3.951   5.528   3.539  0.5147 -0.1295 -0.3535
 6447SOL    HW124976   3.958   5.535   3.634  1.1755  0.4230 -0.4412
 6447SOL    HW224977   4.005   5.452   3.516 -0.2881 -0.7472 -0.2088
 6447SOL     MW24978   3.959   5.519   3.548  0.4966 -0.1378 -0.3462
 6448SOL     OW24979   0.576   5.876   1.608  0.3344  0.0211  0.0569
 6448SOL    HW124980   0.618   5.861   1.692 -0.5492 -0.4206  0.4215
 6448SOL    HW224981   0.561   5.788   1.572  1.7141  0.2214 -1.0712
 6448SOL     MW24982   0.579   5.863   1.614  0.3979 -0.0100 -0.0410
 6449SOL     OW24983   5.715   5.197   5.165 -0.1307  0.1312 -0.3939
 6449SOL    HW124984   5.738   5.276   5.117  0.7694 -1.1078 -2.0767
 6449SOL    HW224985   5.798   5.164   5.199 -0.5493  0.0826  0.6193
 6449SOL     MW24986   5.728   5.203   5.163 -0.0691 -0.0334 -0.4797
 6450SOL     OW24987   3.228   4.229   3.673 -0.0180 -0.4767 -0.5378
 6450SOL    HW124988   3.314   4.195   3.697 -1.3943 -2.5743  1.6699
 6450SOL    HW224989   3.182   4.240   3.757 -2.1971 -0.2457 -1.7299
 6450SOL     MW24990   3.233   4.226   3.687 -0.4730 -0.7157 -0.4077
 6451SOL     OW24991   3.502   2.310   3.546 -0.2890  0.0516  1.0389
 6451SOL    HW124992   3.492   2.313   3.451 -0.6086 -1.0593  1.0240
 6451SOL    HW224993   3.495   2.401   3.575 -2.2221  0.1867  0.2053
 6451SOL     MW24994   3.500   2.322   3.538 -0.5774 -0.0737  0.9303
 6452SOL     OW24995   2.156   1.301   4.890 -0.1808  0.1280  0.6689
 6452SOL    HW124996   2.090   1.262   4.832 -1.2872 -0.9724  2.6210
 6452SOL    HW224997   2.111   1.314   4.973  1.8618  0.0728  1.8216
 6452SOL     MW24998   2.142   1.298   4.893 -0.0608 -0.0200  1.0662
 6453SOL     OW24999   4.639   1.045   3.523  0.2298 -0.5667 -0.1420
 6453SOL    HW125000   4.591   1.121   3.489  0.6736 -0.3904 -0.3817
 6453SOL    HW225001   4.572   0.993   3.568 -0.1379 -0.1946 -0.2484
 6453SOL     MW25002   4.624   1.048   3.524  0.2398 -0.4963 -0.1862
 6454SOL     OW25003   5.106   2.597   2.349  0.1062 -0.4018  0.2398
 6454SOL    HW125004   5.060   2.529   2.399 -1.3031  0.7581  0.5356
 6454SOL    HW225005   5.134   2.660   2.415  0.0337  0.1016 -0.2155
 6454SOL     MW25006   5.103   2.596   2.364 -0.0834 -0.1891  0.2193
 6455SOL     OW25007   0.098   0.859   5.628 -0.2654 -0.3571  0.1514
 6455SOL    HW125008   0.040   0.783   5.624  1.2864 -1.5019 -1.3714
 6455SOL    HW225009   0.144   0.860   5.544  0.8428  1.3810  0.7318
 6455SOL     MW25010   0.097   0.849   5.617  0.0751 -0.2812  0.0310
 6456SOL     OW25011   0.936   4.770   1.137  0.7984 -0.4518 -0.2295
 6456SOL    HW125012   0.952   4.738   1.225  1.5612  0.8307  0.1188
 6456SOL    HW225013   0.843   4.794   1.136  1.0266  0.4833  0.5482
 6456SOL     MW25014   0.926   4.769   1.148  0.9253 -0.1678 -0.0854
 6457SOL     OW25015   4.247   0.331   0.694  0.1564 -0.3251  0.6346
 6457SOL    HW125016   4.337   0.353   0.667  0.4978 -2.4053 -0.0819
 6457SOL    HW225017   4.222   0.260   0.635 -2.2044  0.6239  0.4562
 6457SOL     MW25018   4.256   0.324   0.683 -0.1016 -0.4699  0.5200
 6458SOL     OW25019   4.363   4.647   0.571  0.0740  0.3274 -0.3235
 6458SOL    HW125020   4.345   4.576   0.509 -2.3106  1.9971 -1.6456
 6458SOL    HW225021   4.367   4.603   0.657 -0.1930 -1.5511 -1.2448
 6458SOL     MW25022   4.361   4.632   0.574 -0.2656  0.3004 -0.6106
 6459SOL     OW25023   5.654   1.878   1.811 -0.3612  0.2462 -0.3586
 6459SOL    HW125024   5.568   1.883   1.851  0.8204  0.5396  2.2218
 6459SOL    HW225025   5.676   1.969   1.790  0.1510  0.4181  0.8624
 6459SOL     MW25026   5.646   1.891   1.813 -0.1435  0.3058  0.1280
 6460SOL     OW25027   4.272   0.624   3.222 -0.5413 -0.1904  0.1860
 6460SOL    HW125028   4.329   0.558   3.182  1.7599  0.6222  1.9853
 6460SOL    HW225029   4.238   0.581   3.301  0.7735  0.6331  1.2345
 6460SOL     MW25030   4.275   0.610   3.227 -0.0782  0.0190  0.5507
 6461SOL     OW25031   1.860   0.170   5.563  0.0883  0.4811 -0.0659
 6461SOL    HW125032   1.871   0.255   5.605 -0.0142  1.2260 -1.5221
 6461SOL    HW225033   1.832   0.190   5.474  0.1977 -1.0688 -0.4697
 6461SOL     MW25034   1.858   0.183   5.557  0.0893  0.3781 -0.3042
 6462SOL     OW25035   2.866   5.337   0.958 -0.9133  0.3876  0.4898
 6462SOL    HW125036   2.795   5.337   0.894  1.2124  2.1992 -1.9827
 6462SOL    HW225037   2.854   5.256   1.007 -3.5266 -0.2831 -1.1430
 6462SOL     MW25038   2.855   5.327   0.956 -0.9758  0.5331 -0.0358
 6463SOL     OW25039   4.946   1.928   1.748 -0.4888 -0.1324 -0.1859
 6463SOL    HW125040   5.017   1.965   1.800  0.1375 -0.8898 -0.4913
 6463SOL    HW225041   4.982   1.847   1.712 -1.1456  0.0219 -1.2171
 6463SOL     MW25042   4.960   1.922   1.750 -0.4930 -0.2097 -0.3569
 6464SOL     OW25043   2.999   1.767   4.674 -0.2562  0.1018  0.2732
 6464SOL    HW125044   3.083   1.752   4.632 -1.2532 -0.0667 -1.7561
 6464SOL    HW225045   2.989   1.696   4.737  0.4524 -0.7380 -0.5606
 6464SOL     MW25046   3.008   1.756   4.677 -0.2930 -0.0273 -0.0935
 6465SOL     OW25047   3.043   1.373   1.438 -0.1526 -0.4230 -0.0705
 6465SOL    HW125048   3.050   1.284   1.405 -2.1457 -0.9445  0.8463
 6465SOL    HW225049   3.080   1.427   1.368 -0.1247 -1.8476 -1.1873
 6465SOL     MW25050   3.049   1.369   1.425 -0.4041 -0.6722 -0.0961
 6466SOL     OW25051   1.197   2.027   0.815  0.0067 -0.3513 -0.4157
 6466SOL    HW125052   1.167   1.936   0.823 -0.8401 -0.1979 -1.6401
 6466SOL    HW225053   1.167   2.054   0.728  0.6399  0.9637 -0.2357
 6466SOL     MW25054   1.189   2.019   0.805 -0.0206 -0.1636 -0.5493
 6467SOL     OW25055   5.684   3.347   1.302 -0.9581 -0.6942  0.3650
 6467SOL    HW125056   5.739   3.397   1.243  0.7656 -2.6157  0.3187
 6467SOL    HW225057   5.660   3.268   1.253 -0.0497 -1.9914  1.9543
 6467SOL     MW25058   5.688   3.343   1.289 -0.6218 -1.1065  0.5624
 6468SOL     OW25059   3.824   5.802   5.101  0.7131  0.1328  0.3005
 6468SOL    HW125060   3.746   5.831   5.149  2.6076  3.0642  1.7750
 6468SOL    HW225061   3.853   5.881   5.054  2.1297 -1.2387 -1.1530
 6468SOL     MW25062   3.817   5.816   5.101  1.1368  0.3319  0.3033
 6469SOL     OW25063   0.490   3.045   4.385 -0.1152 -0.0489  0.1447
 6469SOL    HW125064   0.531   3.129   4.405 -1.1144  0.2364  1.0037
 6469SOL    HW225065   0.471   3.007   4.470  1.8527 -1.9120 -0.2045
 6469SOL     MW25066   0.493   3.051   4.398  0.0089 -0.2511  0.2093
 6470SOL     OW25067   5.867   4.051   2.031  0.3497  0.8834  0.0170
 6470SOL    HW125068   5.781   4.010   2.034  1.0571 -0.5876  0.6342
 6470SOL    HW225069   5.866   4.117   2.100 -0.1550  0.6264  0.2486
 6470SOL     MW25070   5.856   4.055   2.040  0.3757  0.6618  0.1254
 6471SOL     OW25071   4.170   3.065   5.689  0.0090  0.2419  0.5639
 6471SOL    HW125072   4.084   3.054   5.648 -0.1121  1.4136  0.4978
 6471SOL    HW225073   4.225   3.101   5.621 -0.3687  2.8581  1.5865
 6471SOL     MW25074   4.166   3.068   5.675 -0.0548  0.7269  0.6862
 6472SOL     OW25075   1.354   4.193   1.577 -0.1408 -0.0491 -0.4997
 6472SOL    HW125076   1.279   4.248   1.556 -0.0796 -0.1599 -1.0349
 6472SOL    HW225077   1.317   4.116   1.620 -0.3179 -0.0226 -0.6042
 6472SOL     MW25078   1.340   4.190   1.580 -0.1557 -0.0601 -0.5816
 6473SOL     OW25079   1.043   3.432   0.295 -0.2419  0.5947 -0.3692
 6473SOL    HW125080   0.997   3.486   0.359  0.1629  1.3534 -0.7159
 6473SOL    HW225081   1.134   3.433   0.324 -0.5448 -1.6324  0.8348
 6473SOL     MW25082   1.049   3.439   0.307 -0.2289  0.4067 -0.2595
 6474SOL     OW25083   1.874   5.368   0.014 -0.3351  0.1133 -0.4384
 6474SOL    HW125084   1.914   5.454   0.011  1.6680 -0.7183  1.0331
 6474SOL    HW225085   1.940   5.309  -0.022 -0.6154 -1.1417  1.0401
 6474SOL     MW25086   1.887   5.371   0.009 -0.1146 -0.1540 -0.0608
 6475SOL     OW25087   5.701   1.932   3.058 -0.1037  0.3302 -0.1061
 6475SOL    HW125088   5.626   1.891   3.014 -0.8312  0.1983  1.2358
 6475SOL    HW225089   5.764   1.948   2.987 -1.1451 -0.1099 -1.1571
 6475SOL     MW25090   5.699   1.928   3.043 -0.3304  0.2571 -0.0691
 6476SOL     OW25091   4.739   3.711   1.939  0.1907 -0.0094  0.7233
 6476SOL    HW125092   4.746   3.796   1.982 -1.2052 -0.0153  0.9895
 6476SOL    HW225093   4.707   3.731   1.851 -0.7135 -0.3035  0.9832
 6476SOL     MW25094   4.736   3.725   1.933 -0.1040 -0.0477  0.7906
 6477SOL     OW25095   5.869   0.765   3.150  0.0070 -0.1673  0.2229
 6477SOL    HW125096   5.887   0.751   3.243  2.2997  0.1617 -0.1279
 6477SOL    HW225097   5.911   0.849   3.130  0.4498 -0.7410 -1.3366
 6477SOL     MW25098   5.877   0.774   3.159  0.3572 -0.1987 -0.0219
 6478SOL     OW25099   5.357   5.347   0.082  0.9373 -0.1069  0.3833
 6478SOL    HW125100   5.286   5.374   0.141  1.7815  2.1535  0.4143
 6478SOL    HW225101   5.313   5.302   0.010 -0.4570  0.4567  0.8662
 6478SOL     MW25102   5.342   5.345   0.081  0.8669  0.2542  0.4491
 6479SOL     OW25103   1.352   4.825   0.071  0.3149 -0.0320  0.4532
 6479SOL    HW125104   1.337   4.850   0.163  0.9469  0.3362  0.4586
 6479SOL    HW225105   1.445   4.803   0.067  0.3296  0.1220 -0.1386
 6479SOL     MW25106   1.362   4.825   0.082  0.3977  0.0348  0.3781
 6480SOL     OW25107   2.496   1.464   2.052 -0.2088 -0.0100 -0.1365
 6480SOL    HW125108   2.531   1.437   2.137 -1.9169 -2.6595 -0.2038
 6480SOL    HW225109   2.426   1.526   2.073 -0.7738 -0.8269  0.4044
 6480SOL     MW25110   2.491   1.468   2.065 -0.4997 -0.4538 -0.0758
 6481SOL     OW25111   1.689   1.367   5.726 -0.4353  0.0757  0.4567
 6481SOL    HW125112   1.702   1.315   5.805  1.2150  1.7075  1.2775
 6481SOL    HW225113   1.718   1.455   5.749 -2.1230  1.1260 -1.2661
 6481SOL     MW25114   1.694   1.371   5.739 -0.4401  0.4190  0.3414
 6482SOL     OW25115   3.130   5.301   4.610 -0.1906 -0.5575  0.0356
 6482SOL    HW125116   3.166   5.247   4.539 -3.3508 -0.2664 -1.8761
 6482SOL    HW225117   3.118   5.388   4.571 -3.8091 -0.8824  0.2384
 6482SOL     MW25118   3.133   5.305   4.596 -1.0583 -0.5612 -0.1831
 6483SOL     OW25119   3.943   3.148   0.289  0.0444  0.2573 -0.0443
 6483SOL    HW125120   3.961   3.102   0.207 -0.3703  1.1550 -0.6516
 6483SOL    HW225121   3.856   3.186   0.276  0.3616  1.1633  0.4649
 6483SOL     MW25122   3.934   3.147   0.277  0.0319  0.4883 -0.0568
 6484SOL     OW25123   4.070   1.596   5.583 -0.0632  0.3756  0.3825
 6484SOL    HW125124   4.118   1.517   5.605  0.6345  0.8082  0.4338
 6484SOL    HW225125   3.994   1.596   5.641  0.3398  0.1347  0.9118
 6484SOL     MW25126   4.066   1.586   5.593  0.0777  0.4002  0.4563
 6485SOL     OW25127   2.902   0.317   1.016 -0.2632  0.2856  0.1572
 6485SOL    HW125128   2.964   0.391   1.020 -0.1439  0.2045 -0.1794
 6485SOL    HW225129   2.947   0.246   1.061 -0.6963  0.6442  1.1699
 6485SOL     MW25130   2.916   0.318   1.022 -0.3033  0.3211  0.2437
 6486SOL     OW25131   0.870   4.967   3.078  0.5023  0.2597  0.1866
 6486SOL    HW125132   0.877   5.029   3.005  2.0706  0.1822  0.2571
 6486SOL    HW225133   0.791   4.994   3.124  1.2371  2.3350  0.3106
 6486SOL     MW25134   0.861   4.979   3.075  0.7970  0.5150  0.2115
 6487SOL     OW25135   2.023   0.251   4.305 -0.4699 -0.0276  0.3403
 6487SOL    HW125136   2.023   0.277   4.397 -1.7624  0.8049  0.1245
 6487SOL    HW225137   2.112   0.267   4.276 -0.6805  2.1828  0.8006
 6487SOL     MW25138   2.034   0.257   4.313 -0.6623  0.3619  0.3719
 6488SOL     OW25139   5.466   1.474   3.657  0.1183 -0.0467 -0.3148
 6488SOL    HW125140   5.532   1.436   3.598 -0.9379  1.5514 -2.5984
 6488SOL    HW225141   5.383   1.454   3.614 -0.6159  1.9899  0.1230
 6488SOL     MW25142   5.464   1.466   3.644 -0.1111  0.4185 -0.5512
 6489SOL     OW25143   0.941   4.959   3.721  0.1046 -0.1654 -0.0493
 6489SOL    HW125144   0.934   4.919   3.634  2.0466  0.7355 -0.6595
 6489SOL    HW225145   1.004   5.030   3.709  1.0234 -0.5447  2.2778
 6489SOL     MW25146   0.948   4.963   3.708  0.4708 -0.0987  0.1705
 6490SOL     OW25147   1.646   2.067   1.223  0.4288  0.3815 -0.0559
 6490SOL    HW125148   1.621   2.117   1.300 -0.3193  1.5458 -1.0505
 6490SOL    HW225149   1.602   2.111   1.150  2.2336  0.1316 -1.3211
 6490SOL     MW25150   1.637   2.079   1.223  0.5640  0.4985 -0.3451
 6491SOL     OW25151   2.019   0.667   3.864  0.1377 -0.1530  0.8717
 6491SOL    HW125152   1.926   0.646   3.870 -0.2937  1.8679  1.3285
 6491SOL    HW225153   2.056   0.638   3.947 -0.3973  0.5994  1.3737
 6491SOL     MW25154   2.012   0.660   3.875  0.0141  0.2020  0.9944
 6492SOL     OW25155   2.157   4.829   5.659 -1.0564 -0.5053 -0.2163
 6492SOL    HW125156   2.108   4.764   5.610 -2.2238 -0.0159  0.2928
 6492SOL    HW225157   2.232   4.781   5.694 -1.3106 -1.3117 -0.7828
 6492SOL     MW25158   2.161   4.815   5.657 -1.2383 -0.5455 -0.2236
 6493SOL     OW25159   2.399   5.108   2.114 -0.2288 -0.3668  0.3370
 6493SOL    HW125160   2.405   5.177   2.048  1.7888 -1.1471 -0.3424
 6493SOL    HW225161   2.412   5.027   2.065 -1.5588 -1.1743  1.2787
 6493SOL     MW25162   2.401   5.106   2.099 -0.1407 -0.5698  0.3705
 6494SOL     OW25163   5.563   1.102   5.247 -1.1275 -0.4828 -0.1192
 6494SOL    HW125164   5.598   1.129   5.162  0.3940  0.0058  0.6386
 6494SOL    HW225165   5.564   1.006   5.244  2.7995 -0.5754  0.8017
 6494SOL     MW25166   5.568   1.093   5.236 -0.4306 -0.4321  0.0958
 6495SOL     OW25167   2.572   5.866   5.451 -0.3630  0.4188  0.7030
 6495SOL    HW125168   2.584   5.772   5.444 -0.9696  0.4882 -1.7425
 6495SOL    HW225169   2.478   5.878   5.465 -0.2063  0.6465  1.5916
 6495SOL     MW25170   2.561   5.856   5.452 -0.4206  0.4568  0.5035
 6496SOL     OW25171   3.694   3.219   5.008 -0.1778  0.3286 -0.1500
 6496SOL    HW125172   3.701   3.302   4.961  0.6679 -1.0142 -2.4562
 6496SOL    HW225173   3.782   3.182   5.005 -0.5106 -0.5748  1.0257
 6496SOL     MW25174   3.706   3.225   5.002 -0.1118  0.0412 -0.2942
 6497SOL     OW25175   5.054   2.418   5.113 -0.1560  0.1763 -0.7174
 6497SOL    HW125176   5.100   2.499   5.135  0.2496 -0.1027 -0.5245
 6497SOL    HW225177   4.975   2.447   5.067  0.5026  0.6416 -1.5777
 6497SOL     MW25178   5.050   2.432   5.110 -0.0196  0.2000 -0.8030
 6498SOL     OW25179   5.054   5.566   2.306  0.3995  0.1911  0.3397
 6498SOL    HW125180   5.068   5.634   2.372  0.3389  0.2326  0.3112
 6498SOL    HW225181   4.960   5.572   2.286 -0.0221 -1.2270  1.7703
 6498SOL     MW25182   5.044   5.576   2.312  0.3381  0.0153  0.5190
 6499SOL     OW25183   4.935   3.495   3.049 -0.4329  0.8603  0.4712
 6499SOL    HW125184   4.948   3.411   3.005 -0.0048 -0.1401  2.4619
 6499SOL    HW225185   4.972   3.560   2.988  2.5939 -0.7550  0.5087
 6499SOL     MW25186   4.942   3.493   3.035  0.0095  0.5252  0.7310
 6500SOL     OW25187   0.704   3.392   0.057 -0.1396  0.4964 -0.0776
 6500SOL    HW125188   0.670   3.357   0.139 -0.0793  0.6425  0.0107
 6500SOL    HW225189   0.631   3.383  -0.005 -0.0168 -0.0663 -0.1357
 6500SOL     MW25190   0.690   3.387   0.060 -0.1162  0.4432 -0.0738
 6501SOL     OW25191   3.592   4.731   5.806  0.6842  0.3200 -0.1310
 6501SOL    HW125192   3.511   4.717   5.855  0.7452 -2.3041 -0.7163
 6501SOL    HW225193   3.638   4.800   5.855 -0.1977 -0.8024  2.3618
 6501SOL     MW25194   3.588   4.738   5.819  0.5791 -0.1593  0.1135
 6502SOL     OW25195   5.582   1.733   4.263  0.9636  0.2512 -0.2343
 6502SOL    HW125196   5.566   1.810   4.317  0.0097  0.3210 -0.5976
 6502SOL    HW225197   5.533   1.750   4.182 -0.1409 -1.1854  0.1011
 6502SOL     MW25198   5.573   1.745   4.259  0.7000  0.0762 -0.2379
 6503SOL     OW25199   3.007   1.171   3.786 -0.4160 -0.2140 -0.5983
 6503SOL    HW125200   3.003   1.232   3.859  0.3129 -0.8743  0.0050
 6503SOL    HW225201   2.970   1.219   3.712 -0.2451  0.8049 -0.0295
 6503SOL     MW25202   3.002   1.185   3.786 -0.3009 -0.1682 -0.4482
 6504SOL     OW25203   4.421   2.439   1.822 -0.5887 -0.0448  0.0302
 6504SOL    HW125204   4.397   2.464   1.733  1.5781 -0.9469 -0.8637
 6504SOL    HW225205   4.439   2.522   1.867 -0.6576  0.3586 -0.6866
 6504SOL     MW25206   4.421   2.453   1.817 -0.3204 -0.1090 -0.1761
 6505SOL     OW25207   2.893   2.362   5.007 -0.0339  0.2408 -0.3627
 6505SOL    HW125208   2.973   2.375   4.956  0.4817  0.2535  0.4452
 6505SOL    HW225209   2.887   2.439   5.063  0.3590 -0.6076  0.8646
 6505SOL     MW25210   2.903   2.373   5.008  0.0825  0.1338 -0.1020
 6506SOL     OW25211   5.436   4.455   3.962 -0.3086  0.0083 -1.1386
 6506SOL    HW125212   5.447   4.380   3.903 -1.6459 -0.5121 -0.7479
 6506SOL    HW225213   5.427   4.530   3.903  0.9660 -0.1372 -1.5310
 6506SOL     MW25214   5.436   4.455   3.947 -0.3171 -0.0772 -1.1389
 6507SOL     OW25215   4.172   0.805   3.835  0.0079  1.3642  0.4564
 6507SOL    HW125216   4.265   0.817   3.817  0.0913  0.2086  0.0729
 6507SOL    HW225217   4.137   0.894   3.843  0.5112  1.9013 -2.6449
 6507SOL     MW25218   4.180   0.818   3.833  0.0834  1.2850  0.0103
 6508SOL     OW25219   3.254   5.931   0.037  0.0110  0.1980 -0.4331
 6508SOL    HW125220   3.285   5.847   0.071 -1.7188  0.0990  0.9345
 6508SOL    HW225221   3.311   5.996   0.078 -1.9819  0.0756  2.6835
 6508SOL     MW25222   3.266   5.929   0.046 -0.4656  0.1698  0.1410
 6509SOL     OW25223   4.554   3.533   2.040 -0.0561  0.0996 -0.4726
 6509SOL    HW125224   4.627   3.591   2.018  1.0316 -0.8926  0.4009
 6509SOL    HW225225   4.522   3.566   2.124  1.0547 -0.9972  0.3991
 6509SOL     MW25226   4.559   3.545   2.048  0.2251 -0.1678 -0.2494
 6510SOL     OW25227   3.468   1.496   0.971 -0.7203 -0.0160  0.0333
 6510SOL    HW125228   3.496   1.566   1.030  0.7112  1.5105 -2.3782
 6510SOL    HW225229   3.455   1.420   1.028 -0.4584  1.6924  2.4404
 6510SOL     MW25230   3.470   1.495   0.985 -0.5035  0.3980  0.0327
 6511SOL     OW25231   5.212   1.182   0.946  0.9901 -0.6918  0.0645
 6511SOL    HW125232   5.201   1.238   1.022  1.4543  0.8850 -1.0065
 6511SOL    HW225233   5.281   1.224   0.894 -1.9479  0.4787 -3.1451
 6511SOL     MW25234   5.219   1.195   0.949  0.6738 -0.3401 -0.4835
 6512SOL     OW25235   5.669   1.033   0.721 -0.0564 -0.1961 -0.4079
 6512SOL    HW125236   5.758   1.068   0.713 -0.5348  1.1694  0.0345
 6512SOL    HW225237   5.669   0.986   0.805 -0.7701  3.0276  1.4841
 6512SOL     MW25238   5.680   1.032   0.731 -0.2093  0.3915 -0.1091
 6513SOL     OW25239   5.735   5.810   4.968  0.0369  0.5043  0.1917
 6513SOL    HW125240   5.671   5.860   5.019 -1.3544 -0.6895 -0.3330
 6513SOL    HW225241   5.682   5.761   4.905  1.2727 -2.1040  1.1139
 6513SOL     MW25242   5.720   5.810   4.967  0.0172  0.0176  0.2427
 6514SOL     OW25243   0.784   4.761   3.983  0.6467 -0.4164 -0.3315
 6514SOL    HW125244   0.752   4.815   3.910  1.1348 -1.1804 -1.1267
 6514SOL    HW225245   0.752   4.805   4.061 -0.7043 -0.1003 -1.0387
 6514SOL     MW25246   0.776   4.774   3.983  0.5363 -0.4735 -0.5240
 6515SOL     OW25247   5.311   5.244   0.522 -0.1752 -0.0468  0.7153
 6515SOL    HW125248   5.236   5.233   0.464  1.1923  1.2177 -1.3446
 6515SOL    HW225249   5.301   5.332   0.558  0.9328  0.5788 -0.4846
 6515SOL     MW25250   5.300   5.254   0.519  0.1426  0.1950  0.2980
 6516SOL     OW25251   3.683   0.806   3.715  0.2866  0.1193  0.4179
 6516SOL    HW125252   3.738   0.728   3.715 -0.5467 -0.4838 -0.1895
 6516SOL    HW225253   3.631   0.798   3.795  0.6648  0.3902  0.6922
 6516SOL     MW25254   3.683   0.795   3.725  0.2282  0.0768  0.3753
 6517SOL     OW25255   5.694   3.082   3.211  0.0151  0.5451  0.2476
 6517SOL    HW125256   5.748   3.153   3.246  1.0674 -0.5422  0.8594
 6517SOL    HW225257   5.755   3.027   3.162 -1.1775  1.1987 -2.0189
 6517SOL     MW25258   5.709   3.084   3.209 -0.0029  0.4895  0.0360
 6518SOL     OW25259   5.826   2.459   3.730 -0.4203 -0.7463 -0.5945
 6518SOL    HW125260   5.815   2.443   3.637 -1.4557  2.1680 -1.0216
 6518SOL    HW225261   5.788   2.545   3.745  1.1777 -0.4454  2.2306
 6518SOL     MW25262   5.820   2.468   3.720 -0.3481 -0.3347 -0.2880
 6519SOL     OW25263   4.729   5.533   3.481 -0.5268  0.0922 -0.6385
 6519SOL    HW125264   4.717   5.508   3.573 -1.6168 -0.8660 -1.0270
 6519SOL    HW225265   4.643   5.567   3.454 -0.7331 -1.3277 -1.8105
 6519SOL     MW25266   4.716   5.534   3.489 -0.6928 -0.2122 -0.8385
 6520SOL     OW25267   5.918   4.936   2.745 -0.2101 -0.0697 -0.0659
 6520SOL    HW125268   5.864   4.967   2.818 -1.8735  0.9242 -1.6665
 6520SOL    HW225269   5.975   5.009   2.724  2.5950 -1.5032  2.3371
 6520SOL     MW25270   5.918   4.949   2.751 -0.0644 -0.1259  0.0370
 6521SOL     OW25271   0.412   2.379   1.295 -0.0231  0.3817 -0.4659
 6521SOL    HW125272   0.476   2.358   1.227 -0.2429 -1.2144 -0.2138
 6521SOL    HW225273   0.349   2.437   1.252  1.3189  1.6007 -0.8434
 6521SOL     MW25274   0.412   2.384   1.281  0.1206  0.3333 -0.4818
 6522SOL     OW25275   2.804   3.495   0.590 -0.1390 -0.2611 -0.0275
 6522SOL    HW125276   2.812   3.405   0.558  3.8241 -0.5330  1.4281
 6522SOL    HW225277   2.750   3.487   0.669  0.9726 -1.5159  0.6271
 6522SOL     MW25278   2.798   3.482   0.596  0.5107 -0.4566  0.2426
 6523SOL     OW25279   4.518   3.797   1.045 -0.2331  0.8659  0.8765
 6523SOL    HW125280   4.429   3.830   1.062 -0.6041  0.0763  0.4712
 6523SOL    HW225281   4.505   3.712   1.004  0.7213  0.6063  1.0969
 6523SOL     MW25282   4.505   3.791   1.042 -0.1578  0.7315  0.8527
 6524SOL     OW25283   1.646   3.987   1.347 -0.3708  0.0238 -0.5664
 6524SOL    HW125284   1.725   3.942   1.319  1.0638  1.1101  1.5368
 6524SOL    HW225285   1.615   3.936   1.422 -0.1503  1.0646  0.2543
 6524SOL     MW25286   1.652   3.975   1.353 -0.1590  0.2961 -0.1920
 6525SOL     OW25287   5.356   1.021   2.943  1.0519 -0.2975 -0.0832
 6525SOL    HW125288   5.384   1.087   3.005 -0.3892  1.1809 -0.9464
 6525SOL    HW225289   5.436   0.995   2.897  2.1261 -1.4524  2.3916
 6525SOL     MW25290   5.370   1.026   2.945  1.0056 -0.2561  0.1230
 6526SOL     OW25291   0.817   3.325   1.109 -0.1814 -0.2470 -0.6849
 6526SOL    HW125292   0.734   3.371   1.097 -0.0543  0.4419  0.9487
 6526SOL    HW225293   0.873   3.388   1.156  1.1138 -0.8628 -1.3804
 6526SOL     MW25294   0.813   3.339   1.114  0.0007 -0.2377 -0.5648
 6527SOL     OW25295   3.201   5.680   0.226  0.1363 -0.0093  0.3563
 6527SOL    HW125296   3.111   5.686   0.258 -0.5860 -1.1724 -1.3735
 6527SOL    HW225297   3.192   5.648   0.136  2.2349  0.7325 -0.1483
 6527SOL     MW25298   3.188   5.677   0.218  0.3123 -0.0634  0.0703
 6528SOL     OW25299   1.567   2.838   2.837 -0.0459  0.1041  0.0663
 6528SOL    HW125300   1.647   2.855   2.788 -0.4642  0.8342 -0.3856
 6528SOL    HW225301   1.508   2.798   2.773 -0.4213  0.5934  0.0978
 6528SOL     MW25302   1.570   2.835   2.822 -0.1476  0.2604  0.0124
 6529SOL     OW25303   5.894   3.985   0.993  0.2083 -0.2012  0.6297
 6529SOL    HW125304   5.856   3.931   1.064 -0.8832  0.4624  0.5629
 6529SOL    HW225305   5.981   3.948   0.979  0.0421 -0.9986  1.6214
 6529SOL     MW25306   5.900   3.973   1.001  0.0472 -0.2182  0.7482
 6530SOL     OW25307   5.296   0.630   5.376  0.1631  0.2306  0.3910
 6530SOL    HW125308   5.218   0.636   5.432 -1.3974 -0.6152 -1.6464
 6530SOL    HW225309   5.290   0.707   5.319  0.7897  0.1117  0.1627
 6530SOL     MW25310   5.285   0.641   5.376  0.0434  0.1070  0.1011
 6531SOL     OW25311   5.542   1.327   4.276  0.0608 -0.2076  0.3240
 6531SOL    HW125312   5.484   1.293   4.208  1.5030 -0.4919 -0.7909
 6531SOL    HW225313   5.627   1.286   4.258  1.2772  2.1859  0.3116
 6531SOL     MW25314   5.546   1.318   4.265  0.4010  0.0623  0.1798
 6532SOL     OW25315   0.496   1.849   2.875 -0.2776  0.1647 -0.2431
 6532SOL    HW125316   0.560   1.904   2.830 -0.5179  0.0748 -0.6917
 6532SOL    HW225317   0.445   1.910   2.928 -1.6281  0.5835 -2.0097
 6532SOL     MW25318   0.498   1.864   2.876 -0.4813  0.2068 -0.5267
 6533SOL     OW25319   3.956   1.228   4.035  0.1747 -0.6442 -0.3640
 6533SOL    HW125320   3.962   1.154   3.974  0.9018  0.5300 -1.7454
 6533SOL    HW225321   3.905   1.294   3.988  2.4882  1.0759 -0.5934
 6533SOL     MW25322   3.950   1.227   4.021  0.5639 -0.2736 -0.5698
 6534SOL     OW25323   4.883   0.960   0.444 -0.0989  0.5357  0.1552
 6534SOL    HW125324   4.843   1.025   0.500 -0.5338  0.5015 -0.1160
 6534SOL    HW225325   4.858   0.985   0.355 -0.8587 -0.3945  0.0941
 6534SOL     MW25326   4.875   0.971   0.440 -0.2522  0.4123  0.1126
 6535SOL     OW25327   0.626   5.274   2.984 -0.3361  0.4672 -0.1501
 6535SOL    HW125328   0.676   5.356   2.989  0.2194  0.0317  2.0982
 6535SOL    HW225329   0.676   5.221   2.922  0.6661  0.9293  0.2361
 6535SOL     MW25330   0.639   5.278   2.977 -0.1367  0.4702  0.1869
 6536SOL     OW25331   1.188   1.049   3.943 -0.5483 -0.1772 -0.5812
 6536SOL    HW125332   1.261   1.088   3.991  0.0663  0.6483 -2.1455
 6536SOL    HW225333   1.111   1.070   3.996  0.0719  1.0119 -0.1219
 6536SOL     MW25334   1.188   1.057   3.956 -0.3902  0.0806 -0.7226
 6537SOL     OW25335   5.665   4.717   0.739  0.1479 -0.9960 -0.3373
 6537SOL    HW125336   5.735   4.657   0.767 -0.0064 -0.7602  0.5459
 6537SOL    HW225337   5.687   4.738   0.648  1.5286 -0.5231  0.0874
 6537SOL     MW25338   5.677   4.712   0.731  0.3052 -0.9055 -0.1699
 6538SOL     OW25339   0.285   4.310   1.263 -0.0603  0.4708 -0.0651
 6538SOL    HW125340   0.306   4.331   1.173  0.5424  3.1018  0.6697
 6538SOL    HW225341   0.190   4.297   1.263 -0.1211  0.9147 -0.9864
 6538SOL     MW25342   0.275   4.311   1.252  0.0091  0.8640 -0.0890
 6539SOL     OW25343   3.290   5.804   3.482 -0.5068  0.1324  0.4821
 6539SOL    HW125344   3.208   5.794   3.434  0.6435 -2.3574 -1.0923
 6539SOL    HW225345   3.339   5.724   3.463  1.8010  1.0284  2.3510
 6539SOL     MW25346   3.286   5.793   3.473 -0.0644 -0.0720  0.5198
 6540SOL     OW25347   0.481   1.939   4.066 -0.1746  0.1621 -0.8158
 6540SOL    HW125348   0.487   2.011   4.129  0.4478 -2.5554  2.3558
 6540SOL    HW225349   0.465   1.861   4.119  1.8807 -2.5058 -3.8633
 6540SOL     MW25350   0.480   1.938   4.080  0.1682 -0.5273 -0.7992
 6541SOL     OW25351   3.652   2.942   1.818 -0.0497  0.1991 -0.1322
 6541SOL    HW125352   3.695   3.022   1.788 -1.6191  1.9647  2.2338
 6541SOL    HW225353   3.723   2.878   1.823  1.3162  1.5653 -1.5706
 6541SOL     MW25354   3.667   2.944   1.815 -0.0758  0.6001 -0.0135
 6542SOL     OW25355   5.972   2.561   2.274  0.1674 -0.5008 -0.2467
 6542SOL    HW125356   5.891   2.577   2.226  0.2969  1.9046  0.2924
 6542SOL    HW225357   6.040   2.554   2.206  0.2173  2.0622 -0.4996
 6542SOL     MW25358   5.971   2.562   2.259  0.1903  0.1354 -0.2103
 6543SOL     OW25359   2.508   3.446   0.246 -0.0327 -0.7733 -0.6953
 6543SOL    HW125360   2.488   3.437   0.340 -3.6209  1.5328 -1.1622
 6543SOL    HW225361   2.595   3.486   0.245  0.5252 -1.7981  1.6201
 6543SOL     MW25362   2.517   3.450   0.258 -0.4206 -0.6092 -0.4587
 6544SOL     OW25363   4.498   2.651   0.902 -0.0172  0.9106 -0.0602
 6544SOL    HW125364   4.472   2.605   0.822 -2.1597 -0.1821  1.2091
 6544SOL    HW225365   4.525   2.581   0.962  2.2237  1.7672 -0.0264
 6544SOL     MW25366   4.498   2.636   0.900 -0.0043  0.8802  0.1066
 6545SOL     OW25367   0.723   4.311   3.155  0.0411  0.4240  0.1592
 6545SOL    HW125368   0.782   4.386   3.152  0.9327 -0.2694  0.0080
 6545SOL    HW225369   0.778   4.236   3.133 -0.8746 -0.2548  0.1230
 6545SOL     MW25370   0.737   4.311   3.152  0.0380  0.2480  0.1354
 6546SOL     OW25371   1.503   5.181   3.145 -0.1029  0.5852  0.6846
 6546SOL    HW125372   1.479   5.113   3.081  0.3480  0.0504  1.0784
 6546SOL    HW225373   1.470   5.148   3.228  0.0524  0.8898  0.8670
 6546SOL     MW25374   1.496   5.168   3.147 -0.0253  0.5555  0.7584
 6547SOL     OW25375   2.567   3.720   2.619  0.1547 -0.3122 -0.3106
 6547SOL    HW125376   2.658   3.747   2.615 -0.1213  0.5793 -0.6544
 6547SOL    HW225377   2.564   3.656   2.690  0.9832 -0.0778 -0.0641
 6547SOL     MW25378   2.578   3.715   2.628  0.2251 -0.1681 -0.3233
 6548SOL     OW25379   2.573   1.393   3.423  0.2859  0.3139 -0.3793
 6548SOL    HW125380   2.484   1.418   3.447 -0.8641 -2.4259 -1.6785
 6548SOL    HW225381   2.596   1.452   3.351 -0.1882  1.4539  0.3734
 6548SOL     MW25382   2.565   1.404   3.417  0.0780  0.1091 -0.4489
 6549SOL     OW25383   4.418   4.848   5.665 -0.0931  0.4052 -0.5625
 6549SOL    HW125384   4.384   4.807   5.585 -1.9261  0.4166  0.1848
 6549SOL    HW225385   4.493   4.794   5.689 -0.1440 -0.2056 -1.7375
 6549SOL     MW25386   4.423   4.836   5.657 -0.3338  0.3285 -0.6166
 6550SOL     OW25387   2.970   2.720   0.843 -0.6648  0.3365 -0.0605
 6550SOL    HW125388   2.955   2.738   0.936 -1.4067 -0.6461  0.0201
 6550SOL    HW225389   2.886   2.740   0.801 -1.2011 -1.9150 -0.1089
 6550SOL     MW25390   2.957   2.725   0.849 -0.8283 -0.0772 -0.0564
 6551SOL     OW25391   4.242   2.037   3.558  0.5278  0.4105  0.4940
 6551SOL    HW125392   4.290   2.013   3.637 -1.0918 -0.9575  1.0928
 6551SOL    HW225393   4.257   1.965   3.498  0.6830  0.8341  0.0202
 6551SOL     MW25394   4.250   2.025   3.561  0.3400  0.2894  0.5097
 6552SOL     OW25395   2.089   3.542   1.391  0.0034 -0.1678  0.1121
 6552SOL    HW125396   2.163   3.562   1.448  0.6038  0.6200 -0.9368
 6552SOL    HW225397   2.064   3.626   1.353  0.8707 -0.9513 -2.2895
 6552SOL     MW25398   2.095   3.555   1.394  0.1915 -0.1671 -0.3296
 6553SOL     OW25399   1.669   5.553   3.220 -0.4318 -0.1475  0.1024
 6553SOL    HW125400   1.733   5.483   3.235  0.0652  0.4021  0.6235
 6553SOL    HW225401   1.600   5.536   3.284  1.7452  2.2569  3.3084
 6553SOL     MW25402   1.669   5.542   3.230 -0.0894  0.2313  0.5796
 6554SOL     OW25403   1.596   1.148   0.956 -0.1805  0.0621 -0.1350
 6554SOL    HW125404   1.678   1.138   0.907 -0.2336 -2.2126  0.1778
 6554SOL    HW225405   1.617   1.118   1.044 -0.6554  2.1111  0.6979
 6554SOL     MW25406   1.609   1.143   0.961 -0.2481  0.0333  0.0116
 6555SOL     OW25407   3.099   4.551   5.671  0.0477 -0.1612 -0.4451
 6555SOL    HW125408   3.013   4.587   5.648 -1.1388 -2.7001 -0.1180
 6555SOL    HW225409   3.140   4.532   5.586  0.1391  0.7021 -0.5977
 6555SOL     MW25410   3.093   4.553   5.657 -0.0925 -0.3757 -0.4225
 6556SOL     OW25411   1.474   5.471   3.416 -0.3353  0.3518 -0.4141
 6556SOL    HW125412   1.408   5.535   3.444 -1.2836  0.1247 -2.0958
 6556SOL    HW225413   1.437   5.386   3.442  0.2869  0.3676  0.5586
 6556SOL     MW25414   1.461   5.468   3.423 -0.3769  0.3247 -0.5047
 6557SOL     OW25415   5.138   5.571   1.683  0.4504  0.4571  0.5091
 6557SOL    HW125416   5.214   5.553   1.627  1.2463 -1.2697  2.0722
 6557SOL    HW225417   5.152   5.661   1.714  1.6961  0.2750  0.5115
 6557SOL     MW25418   5.150   5.580   1.680  0.7119  0.2136  0.7095
 6558SOL     OW25419   3.816   3.889   4.411 -0.3493 -0.2860 -0.1987
 6558SOL    HW125420   3.882   3.858   4.473 -2.7489 -2.5582  1.2877
 6558SOL    HW225421   3.818   3.825   4.341 -1.8648 -1.0755  0.4746
 6558SOL     MW25422   3.825   3.877   4.410 -0.8502 -0.6781  0.0772
 6559SOL     OW25423   3.998   2.779   0.050 -0.2482  0.0222 -0.4766
 6559SOL    HW125424   3.936   2.721   0.005 -0.5817  1.6658 -2.2250
 6559SOL    HW225425   4.082   2.761   0.009 -0.4032  0.9208 -1.2339
 6559SOL     MW25426   4.000   2.770   0.039 -0.3109  0.3479 -0.7974
 6560SOL     OW25427   5.786   4.682   3.668 -0.1836  0.2242 -0.6298
 6560SOL    HW125428   5.704   4.645   3.635  0.3045 -1.5518  0.0926
 6560SOL    HW225429   5.774   4.686   3.763  0.2382  0.8196 -0.5951
 6560SOL     MW25430   5.774   4.678   3.676 -0.0672  0.0730 -0.5329
 6561SOL     OW25431   4.856   0.204   5.299  0.4596  0.1958 -0.3832
 6561SOL    HW125432   4.804   0.174   5.225  0.5513  1.8383 -1.1448
 6561SOL    HW225433   4.791   0.243   5.359  0.6472  1.0760 -0.7400
 6561SOL     MW25434   4.841   0.205   5.297  0.4959  0.5187 -0.5264
 6562SOL     OW25435   4.780   2.626   3.207  0.7446  0.3027  0.2577
 6562SOL    HW125436   4.854   2.573   3.236  0.9759  0.4949  0.0218
 6562SOL    HW225437   4.812   2.716   3.210  0.9481  0.2854 -1.1233
 6562SOL     MW25438   4.793   2.631   3.211  0.8006  0.3250  0.0510
 6563SOL     OW25439   4.411   2.818   5.412  0.6325 -0.4473  0.2278
 6563SOL    HW125440   4.390   2.816   5.506  1.5356  0.6541  0.4634
 6563SOL    HW225441   4.506   2.808   5.409  0.4843 -1.6585 -0.6378
 6563SOL     MW25442   4.420   2.817   5.424  0.7286 -0.4616  0.1478
 6564SOL     OW25443   5.965   1.736   1.647 -0.1638 -0.2779  0.2931
 6564SOL    HW125444   5.884   1.728   1.697 -0.0240  0.4805  0.6496
 6564SOL    HW225445   6.020   1.664   1.679 -0.7752 -0.9264 -0.1094
 6564SOL     MW25446   5.962   1.726   1.657 -0.2246 -0.2639  0.2873
 6565SOL     OW25447   4.241   5.447   4.985  0.0054 -0.5107 -0.0101
 6565SOL    HW125448   4.202   5.534   4.998 -0.0686 -0.5540  0.0548
 6565SOL    HW225449   4.286   5.429   5.068 -0.2522 -0.6762  0.0906
 6565SOL     MW25450   4.242   5.456   4.997 -0.0367 -0.5374  0.0105
 6566SOL     OW25451   4.237   1.697   0.453 -0.1841  0.2062  0.1121
 6566SOL    HW125452   4.166   1.747   0.414 -0.3519 -0.4123 -0.3903
 6566SOL    HW225453   4.204   1.607   0.456 -0.4651  0.3564  2.3867
 6566SOL     MW25454   4.224   1.692   0.449 -0.2413  0.1464  0.3389
 6567SOL     OW25455   1.474   1.535   4.190  0.7071  0.2081  0.4230
 6567SOL    HW125456   1.528   1.497   4.121  0.2081  0.7124 -0.2471
 6567SOL    HW225457   1.479   1.629   4.177  0.4116  0.2971  0.9252
 6567SOL     MW25458   1.481   1.542   4.179  0.6053  0.2840  0.4020
 6568SOL     OW25459   3.661   0.136   4.017 -0.0427  0.5395  0.0621
 6568SOL    HW125460   3.586   0.098   4.063 -0.3471  0.7773 -0.2391
 6568SOL    HW225461   3.682   0.072   3.949  0.2547  0.3032  0.3729
 6568SOL     MW25462   3.654   0.123   4.014 -0.0434  0.5397  0.0629
 6569SOL     OW25463   5.151   1.456   4.180  0.2700 -0.1764 -0.4339
 6569SOL    HW125464   5.204   1.382   4.153  1.0543  0.0459  0.4702
 6569SOL    HW225465   5.213   1.516   4.222 -0.4544  0.7232 -0.6297
 6569SOL     MW25466   5.166   1.454   4.182  0.2780 -0.0328 -0.3433
 6570SOL     OW25467   3.156   0.618   0.722 -0.2655 -0.3124  0.3224
 6570SOL    HW125468   3.116   0.687   0.669 -1.0408 -1.5999 -0.8093
 6570SOL    HW225469   3.190   0.663   0.799 -1.6440  1.1837  0.0777
 6570SOL     MW25470   3.155   0.633   0.725 -0.5410 -0.2857  0.1462
 6571SOL     OW25471   3.027   0.198   5.254 -0.2851  0.5362 -0.1588
 6571SOL    HW125472   3.115   0.170   5.279 -1.4914 -1.4916  2.0929
 6571SOL    HW225473   3.005   0.144   5.178  0.6535  1.5091 -1.1243
 6571SOL     MW25474   3.036   0.188   5.247 -0.3192  0.4012  0.0052
 6572SOL     OW25475   2.609   1.120   3.002  0.3049 -0.9567 -0.0713
 6572SOL    HW125476   2.648   1.099   2.917 -1.3552 -0.5506 -0.9625
 6572SOL    HW225477   2.531   1.171   2.981  0.6612  0.4339  1.7780
 6572SOL     MW25478   2.604   1.124   2.988  0.1380 -0.7267  0.0515
 6573SOL     OW25479   4.210   2.901   2.511  0.0121 -0.7306  0.0986
 6573SOL    HW125480   4.221   2.829   2.450 -1.6039 -1.4168  0.5747
 6573SOL    HW225481   4.250   2.871   2.593  0.8731 -0.3949 -0.1969
 6573SOL     MW25482   4.216   2.888   2.514 -0.0844 -0.7756  0.1216
 6574SOL     OW25483   3.445   4.526   3.350 -0.0239 -0.2811  0.8767
 6574SOL    HW125484   3.375   4.552   3.411 -0.2457 -0.8033  0.8457
 6574SOL    HW225485   3.436   4.431   3.343 -0.0257 -0.2117 -0.0138
 6574SOL     MW25486   3.435   4.517   3.357 -0.0527 -0.3390  0.7589
 6575SOL     OW25487   5.901   0.175   4.274 -0.0398  0.4177 -0.0332
 6575SOL    HW125488   5.850   0.160   4.353 -1.4809  1.7015 -0.6972
 6575SOL    HW225489   5.978   0.119   4.284 -1.0413 -0.7199  1.4810
 6575SOL     MW25490   5.905   0.166   4.285 -0.3529  0.4364  0.0758
 6576SOL     OW25491   2.973   1.510   5.228  0.0853 -0.4808 -0.3776
 6576SOL    HW125492   2.918   1.576   5.184 -0.8556 -0.9936  0.0305
 6576SOL    HW225493   3.003   1.553   5.307 -0.3648 -0.4621 -0.2134
 6576SOL     MW25494   2.970   1.524   5.232 -0.0925 -0.5440 -0.3042
 6577SOL     OW25495   2.258   2.543   5.200 -0.9272 -0.5452 -0.0715
 6577SOL    HW125496   2.308   2.525   5.121 -2.5749 -0.0241 -1.2468
 6577SOL    HW225497   2.269   2.637   5.214 -0.4749 -0.6704  0.4434
 6577SOL     MW25498   2.266   2.553   5.192 -1.0800 -0.4945 -0.1554
 6578SOL     OW25499   5.718   5.750   2.488 -0.1058 -0.0212 -0.2744
 6578SOL    HW125500   5.742   5.670   2.536 -0.2190 -0.1028 -0.3530
 6578SOL    HW225501   5.802   5.790   2.465 -0.0416 -0.4446 -0.7769
 6578SOL     MW25502   5.732   5.745   2.491 -0.1121 -0.0858 -0.3488
 6579SOL     OW25503   3.735   4.368   0.590  0.2896 -0.4793  0.4787
 6579SOL    HW125504   3.763   4.332   0.674 -1.5567  1.2464  1.8832
 6579SOL    HW225505   3.771   4.457   0.590 -1.7811  0.3796  0.5661
 6579SOL     MW25506   3.743   4.375   0.601 -0.2117 -0.1488  0.6696
 6580SOL     OW25507   3.047   0.742   3.562  0.3747 -0.3964  0.4313
 6580SOL    HW125508   3.087   0.693   3.491  0.9655 -0.2639  0.6728
 6580SOL    HW225509   3.030   0.677   3.630  0.8797 -0.3154  0.6321
 6580SOL     MW25510   3.050   0.728   3.561  0.5147 -0.3690  0.4878
 6581SOL     OW25511   5.451   2.945   4.288  0.0753  0.3980  0.0005
 6581SOL    HW125512   5.385   2.948   4.357 -0.8535  0.5465 -0.8891
 6581SOL    HW225513   5.499   2.863   4.304  0.5753  0.9540  1.4524
 6581SOL     MW25514   5.449   2.935   4.299  0.0205  0.4883  0.0730
 6582SOL     OW25515   0.502   4.852   3.659  0.3641 -1.3923  0.4723
 6582SOL    HW125516   0.573   4.904   3.698 -1.1264  0.4017  0.8875
 6582SOL    HW225517   0.500   4.878   3.567 -1.9894  1.2650  1.1915
 6582SOL     MW25518   0.511   4.862   3.652 -0.1280 -0.8225  0.6173
 6583SOL     OW25519   4.297   0.801   0.977 -0.3302 -0.0255 -0.1148
 6583SOL    HW125520   4.284   0.871   1.041  0.9627 -0.9288  1.1609
 6583SOL    HW225521   4.379   0.760   1.003 -1.2101 -2.1831 -0.6899
 6583SOL     MW25522   4.306   0.805   0.989 -0.2770 -0.4174 -0.0251
 6584SOL     OW25523   2.069   5.614   1.849  0.3061  1.1473 -0.5075
 6584SOL    HW125524   2.071   5.637   1.757  0.9022 -2.7323 -1.5632
 6584SOL    HW225525   2.153   5.570   1.864  0.3518  1.9990  1.9744
 6584SOL     MW25526   2.080   5.611   1.840  0.3881  0.7596 -0.3248
 6585SOL     OW25527   1.681   0.471   5.758  0.1679 -0.4827  0.1880
 6585SOL    HW125528   1.669   0.410   5.831  1.1625 -0.8480  0.0438
 6585SOL    HW225529   1.764   0.446   5.719 -0.3589 -0.2833 -1.0816
 6585SOL     MW25530   1.690   0.460   5.762  0.2277 -0.5039  0.0067
 6586SOL     OW25531   2.088   5.645   0.554 -0.1235  0.7701  0.2163
 6586SOL    HW125532   2.025   5.593   0.603 -1.5342  0.2221 -2.0816
 6586SOL    HW225533   2.172   5.602   0.569 -1.1746 -1.9230 -1.2012
 6586SOL     MW25534   2.091   5.633   0.562 -0.4387  0.3552 -0.2593
 6587SOL     OW25535   5.859   2.559   0.635 -0.2663  0.1656  0.5122
 6587SOL    HW125536   5.925   2.523   0.695  0.0781 -0.1825 -0.0667
 6587SOL    HW225537   5.867   2.505   0.556 -1.4979 -0.1149  0.5691
 6587SOL     MW25538   5.869   2.547   0.633 -0.3800  0.0851  0.4454
 6588SOL     OW25539   4.045   4.453   0.442  0.0266  0.1188  0.2295
 6588SOL    HW125540   4.126   4.443   0.392  1.3635  2.0083  1.9465
 6588SOL    HW225541   4.015   4.542   0.423 -0.8376 -0.0431  0.7770
 6588SOL     MW25542   4.051   4.463   0.433  0.0873  0.3400  0.5194
 6589SOL     OW25543   4.500   1.847   3.611  0.3679 -0.0152  0.1354
 6589SOL    HW125544   4.530   1.805   3.692  2.6247  0.4681 -0.4204
 6589SOL    HW225545   4.538   1.935   3.614  1.0180 -0.2104 -1.7499
 6589SOL     MW25546   4.509   1.853   3.622  0.7401  0.0217 -0.1769
 6590SOL     OW25547   3.182   1.878   4.422  0.1046 -0.2180 -0.1617
 6590SOL    HW125548   3.155   1.922   4.342 -0.4017 -1.9739 -0.9772
 6590SOL    HW225549   3.276   1.865   4.411 -0.1616 -1.5217 -1.0248
 6590SOL     MW25550   3.191   1.882   4.410  0.0057 -0.6096 -0.3767
 6591SOL     OW25551   5.314   3.907   3.661 -0.2940 -0.4809 -0.3826
 6591SOL    HW125552   5.370   3.829   3.663 -0.0367 -0.3209 -1.2089
 6591SOL    HW225553   5.371   3.978   3.691 -0.1197 -0.3598 -0.9967
 6591SOL     MW25554   5.328   3.906   3.665 -0.2394 -0.4449 -0.5670
 6592SOL     OW25555   1.658   3.130   4.154 -0.6644  0.2891  0.3428
 6592SOL    HW125556   1.592   3.061   4.164  0.3738 -0.5213  1.8507
 6592SOL    HW225557   1.734   3.097   4.202  0.6909  1.4014 -1.0215
 6592SOL     MW25558   1.659   3.117   4.162 -0.3580  0.3281  0.3614
 6593SOL     OW25559   5.346   1.938   3.833 -0.0077  0.0191 -0.4624
 6593SOL    HW125560   5.435   1.957   3.803 -0.4283 -1.2563 -2.6576
 6593SOL    HW225561   5.328   1.851   3.798 -1.2276 -0.7912  2.0931
 6593SOL     MW25562   5.355   1.929   3.825 -0.2184 -0.2480 -0.4163
 6594SOL     OW25563   1.447   1.783   4.450 -0.3836 -0.0249  0.7702
 6594SOL    HW125564   1.425   1.877   4.448 -1.3414 -0.2519  0.5058
 6594SOL    HW225565   1.404   1.750   4.529 -1.7408 -0.6476 -0.2134
 6594SOL     MW25566   1.439   1.791   4.460 -0.6799 -0.1338  0.6108
 6595SOL     OW25567   4.647   0.332   3.773  0.1448  0.1306 -0.0400
 6595SOL    HW125568   4.671   0.313   3.682 -1.6453 -2.1517 -0.1054
 6595SOL    HW225569   4.680   0.420   3.790  0.5606  0.5550 -2.8849
 6595SOL     MW25570   4.654   0.341   3.763 -0.0310 -0.1073 -0.4125
 6596SOL     OW25571   1.008   3.247   2.496 -0.2963  0.0792  0.1280
 6596SOL    HW125572   1.088   3.300   2.503 -0.8321  1.0376 -0.7729
 6596SOL    HW225573   1.040   3.158   2.483  0.6301 -0.0886  3.2312
 6596SOL     MW25574   1.022   3.243   2.495 -0.2463  0.1805  0.4098
 6597SOL     OW25575   3.171   3.070   5.586  0.1122  0.0397  0.1465
 6597SOL    HW125576   3.179   3.141   5.650 -0.4614 -0.4508  0.7615
 6597SOL    HW225577   3.103   3.100   5.525 -0.5836 -0.2520  0.7716
 6597SOL     MW25578   3.163   3.083   5.586 -0.0505 -0.0603  0.3052
 6598SOL     OW25579   1.657   4.456   2.475  0.3581 -0.2860 -0.1291
 6598SOL    HW125580   1.696   4.402   2.406  0.5451  1.3005 -1.2816
 6598SOL    HW225581   1.727   4.468   2.539  0.1265 -1.9194  0.4863
 6598SOL     MW25582   1.671   4.450   2.475  0.3524 -0.2913 -0.1979
 6599SOL     OW25583   4.283   5.274   4.084  0.1859 -0.3939  0.1600
 6599SOL    HW125584   4.276   5.315   3.997 -0.4650 -0.4583  0.1776
 6599SOL    HW225585   4.264   5.345   4.145 -0.5286 -0.6149  0.2051
 6599SOL     MW25586   4.279   5.288   4.081  0.0114 -0.4301  0.1678
 6600SOL     OW25587   5.036   3.967   4.260 -0.1434 -0.1800 -0.0166
 6600SOL    HW125588   5.047   3.912   4.337  0.3208 -0.8546 -0.5597
 6600SOL    HW225589   5.021   3.906   4.188 -0.7975  0.4560 -0.4268
 6600SOL     MW25590   5.036   3.953   4.261 -0.1678 -0.1850 -0.1388
 6601SOL     OW25591   0.682   2.018   5.399  0.1336  0.7751 -0.0932
 6601SOL    HW125592   0.653   1.943   5.451 -2.8698  1.2131 -1.0177
 6601SOL    HW225593   0.705   2.085   5.464 -0.1741  0.1185  0.7011
 6601SOL     MW25594   0.681   2.017   5.414 -0.2902  0.7470 -0.1097
 6602SOL     OW25595   5.430   3.428   3.351  0.5079 -0.2842 -0.3761
 6602SOL    HW125596   5.396   3.485   3.419  1.5776  1.6742 -1.4360
 6602SOL    HW225597   5.473   3.357   3.399 -0.4891 -0.0022  0.9582
 6602SOL     MW25598   5.432   3.426   3.366  0.5169  0.0024 -0.3407
 6603SOL     OW25599   0.341   1.821   3.836  0.1613 -0.0222  0.0942
 6603SOL    HW125600   0.310   1.732   3.854 -3.0272  0.9716 -0.2378
 6603SOL    HW225601   0.373   1.853   3.921  1.2429 -1.3985  0.2373
 6603SOL     MW25602   0.341   1.814   3.849 -0.1084 -0.0710  0.0699
 6604SOL     OW25603   3.054   1.334   2.246  0.2867 -0.0230 -0.3780
 6604SOL    HW125604   3.033   1.412   2.195  0.1854 -0.3397 -0.8279
 6604SOL    HW225605   2.972   1.310   2.288  0.0681 -0.4831 -1.0635
 6604SOL     MW25606   3.041   1.341   2.245  0.2456 -0.1223 -0.5231
 6605SOL     OW25607   2.979   2.321   5.720  0.5223  0.7843  0.2762
 6605SOL    HW125608   3.031   2.300   5.798 -1.3990 -4.8047  0.2814
 6605SOL    HW225609   3.041   2.312   5.648  0.8598 -0.4354  0.6996
 6605SOL     MW25610   2.994   2.317   5.721  0.3195 -0.0873  0.3309
 6606SOL     OW25611   4.625   3.550   0.604 -0.1961 -0.0540 -0.1362
 6606SOL    HW125612   4.539   3.543   0.563 -0.3922 -0.1891  0.2994
 6606SOL    HW225613   4.629   3.639   0.637  0.1753  0.2279 -0.9150
 6606SOL     MW25614   4.615   3.560   0.603 -0.1736 -0.0353 -0.1801
 6607SOL     OW25615   4.710   2.427   5.682 -0.1753 -0.4498 -0.2524
 6607SOL    HW125616   4.796   2.386   5.673  0.8895  1.4408  1.0453
 6607SOL    HW225617   4.720   2.514   5.643 -1.0849  0.2985  1.1301
 6607SOL     MW25618   4.722   2.433   5.676 -0.1559 -0.1123  0.0906
 6608SOL     OW25619   3.304   2.139   1.020  0.5474  0.4775 -0.3722
 6608SOL    HW125620   3.320   2.196   1.096 -1.3960  2.3405 -1.3168
 6608SOL    HW225621   3.363   2.173   0.953  2.4836 -1.3585  0.3399
 6608SOL     MW25622   3.314   2.151   1.021  0.5467  0.4811 -0.4019
 6609SOL     OW25623   5.457   4.834   3.132 -0.4882 -0.1250 -0.6395
 6609SOL    HW125624   5.527   4.832   3.197 -0.2708  2.1564 -0.7626
 6609SOL    HW225625   5.489   4.780   3.060 -0.0364 -1.3342  0.4499
 6609SOL     MW25626   5.470   4.827   3.131 -0.4029  0.0129 -0.5157
 6610SOL     OW25627   1.136   3.908   0.231  0.0927 -0.3260 -0.1303
 6610SOL    HW125628   1.097   3.909   0.319 -2.2270 -1.3062 -1.1152
 6610SOL    HW225629   1.195   3.833   0.232  0.1160 -0.3023  0.6117
 6610SOL     MW25630   1.138   3.898   0.242 -0.2013 -0.4485 -0.1614
 6611SOL     OW25631   4.330   5.994   3.766  0.2891  0.3787 -0.8945
 6611SOL    HW125632   4.403   5.963   3.821 -0.3103 -2.6079 -1.6951
 6611SOL    HW225633   4.264   5.925   3.773  0.2315 -0.1640 -5.3938
 6611SOL     MW25634   4.331   5.981   3.774  0.2050 -0.0734 -1.5731
 6612SOL     OW25635   4.259   3.773   2.676  0.0568  0.2887 -0.3185
 6612SOL    HW125636   4.252   3.830   2.600 -1.1735  0.6854  0.0940
 6612SOL    HW225637   4.353   3.752   2.681  0.9408  4.1357  0.9013
 6612SOL     MW25638   4.270   3.778   2.667  0.0124  0.8318 -0.1099
 6613SOL     OW25639   3.651   5.923   0.551  0.1733  0.0406  0.2365
 6613SOL    HW125640   3.728   5.937   0.496  0.8709 -2.2310  0.5820
 6613SOL    HW225641   3.584   5.890   0.491  0.5890 -1.3525  0.5026
 6613SOL     MW25642   3.652   5.920   0.536  0.3159 -0.4282  0.3148
 6614SOL     OW25643   4.868   1.214   1.688  0.7509 -0.2600 -0.1818
 6614SOL    HW125644   4.920   1.279   1.736 -0.4088  0.5679 -0.0258
 6614SOL    HW225645   4.795   1.194   1.747 -0.3808  0.3344 -1.3605
 6614SOL     MW25646   4.866   1.220   1.702  0.4578 -0.0780 -0.3127
 6615SOL     OW25647   4.282   1.694   1.986 -0.0443  0.0740 -0.0937
 6615SOL    HW125648   4.285   1.721   1.894 -0.5006  1.8019  0.3713
 6615SOL    HW225649   4.200   1.646   1.995  1.1051 -2.1601 -1.1012
 6615SOL     MW25650   4.272   1.692   1.976  0.0443  0.0092 -0.1632
 6616SOL     OW25651   2.917   4.679   0.570  1.3920 -0.6381 -0.2576
 6616SOL    HW125652   2.892   4.600   0.522  0.7709 -1.5596  1.4992
 6616SOL    HW225653   2.867   4.749   0.528  0.6283 -1.4628 -0.7548
 6616SOL     MW25654   2.907   4.678   0.559  1.2150 -0.8616 -0.0963
 6617SOL     OW25655   0.105   1.663   5.487 -0.2980  0.4305  0.6345
 6617SOL    HW125656   0.073   1.587   5.439 -1.5507  1.3678 -0.0315
 6617SOL    HW225657   0.117   1.731   5.421  0.4414  0.9393  1.2756
 6617SOL     MW25658   0.103   1.662   5.472 -0.3637  0.6156  0.6309
 6618SOL     OW25659   5.378   0.779   4.802  0.3530 -0.4486 -0.2640
 6618SOL    HW125660   5.433   0.705   4.779  0.6006  0.0404 -1.2594
 6618SOL    HW225661   5.427   0.825   4.871  1.1423 -0.0706 -1.0712
 6618SOL     MW25662   5.391   0.775   4.808  0.4859 -0.3375 -0.4945
 6619SOL     OW25663   4.488   4.975   1.642 -0.2196 -0.0983  0.3663
 6619SOL    HW125664   4.409   5.008   1.685 -0.3573 -0.0888  0.1048
 6619SOL    HW225665   4.480   5.004   1.552 -1.2675 -2.4360 -0.3436
 6619SOL     MW25666   4.477   4.983   1.636 -0.3710 -0.3963  0.2419
 6620SOL     OW25667   3.147   2.545   2.881  0.0225  0.4415 -0.2074
 6620SOL    HW125668   3.183   2.620   2.834 -2.2837  0.3177 -2.2687
 6620SOL    HW225669   3.061   2.531   2.841 -1.2289 -0.8432  2.8218
 6620SOL     MW25670   3.141   2.552   2.870 -0.4330  0.2611 -0.0834
 6621SOL     OW25671   4.031   0.021   5.234  0.3613  0.0437  0.0945
 6621SOL    HW125672   3.989   0.093   5.185 -0.3823  1.1934  2.3408
 6621SOL    HW225673   3.959  -0.019   5.283  0.7879 -2.2293 -1.0555
 6621SOL     MW25674   4.016   0.025   5.234  0.3209 -0.0997  0.2346
 6622SOL     OW25675   3.712   4.540   3.950 -0.0328  0.0313  0.6548
 6622SOL    HW125676   3.633   4.582   3.984  0.9485  0.5548  2.3755
 6622SOL    HW225677   3.769   4.612   3.923  0.3867 -0.2911  0.6658
 6622SOL     MW25678   3.709   4.555   3.951  0.1466  0.0577  0.8764
 6623SOL     OW25679   3.831   4.509   3.190 -0.0152  0.8316  0.6551
 6623SOL    HW125680   3.916   4.464   3.182  0.1300  0.7883  2.3041
 6623SOL    HW225681   3.781   4.479   3.114 -0.0648 -2.4783  1.9110
 6623SOL     MW25682   3.836   4.499   3.179 -0.0029  0.4020  1.0269
 6624SOL     OW25683   1.195   4.016   1.325 -0.3763  0.0174 -0.3183
 6624SOL    HW125684   1.172   3.976   1.241 -2.1659  1.2382 -0.4324
 6624SOL    HW225685   1.258   4.084   1.303 -0.6561  0.1744 -0.6454
 6624SOL     MW25686   1.200   4.019   1.311 -0.6412  0.1941 -0.3748
 6625SOL     OW25687   2.470   2.916   2.262 -0.1062 -0.4453 -0.3869
 6625SOL    HW125688   2.479   2.836   2.314 -2.3955 -2.0715 -2.3426
 6625SOL    HW225689   2.511   2.895   2.178  1.0840  1.1751 -0.2415
 6625SOL     MW25690   2.476   2.903   2.258 -0.2468 -0.4461 -0.6187
 6626SOL     OW25691   2.832   4.823   1.749  0.1412 -0.0144  0.3214
 6626SOL    HW125692   2.797   4.758   1.689  2.4766  0.3703 -1.4823
 6626SOL    HW225693   2.924   4.799   1.761  0.2642  1.1848  2.0609
 6626SOL     MW25694   2.839   4.811   1.743  0.4556  0.1879  0.3132
 6627SOL     OW25695   3.778   1.090   0.052  0.6587 -0.3358 -0.7014
 6627SOL    HW125696   3.724   1.017   0.083 -0.9211  0.9653 -0.3490
 6627SOL    HW225697   3.812   1.130   0.133 -0.1439  0.5556 -0.7953
 6627SOL     MW25698   3.775   1.085   0.067  0.3541 -0.0552 -0.6683
 6628SOL     OW25699   4.727   2.180   5.388 -0.5023 -0.4752 -0.4806
 6628SOL    HW125700   4.643   2.151   5.424  0.1359  0.6724  2.0299
 6628SOL    HW225701   4.710   2.270   5.359 -0.3563 -0.5513 -0.8065
 6628SOL     MW25702   4.714   2.188   5.389 -0.4015 -0.3381 -0.2007
 6629SOL     OW25703   1.622   5.751   3.825  0.9357  0.4199 -0.4556
 6629SOL    HW125704   1.626   5.725   3.733  1.8044  0.2392 -0.3681
 6629SOL    HW225705   1.543   5.707   3.858  0.5643  0.5637 -1.1280
 6629SOL     MW25706   1.612   5.742   3.818  0.9993  0.4148 -0.5302
 6630SOL     OW25707   0.318   5.999   4.864 -1.0236  0.1897 -0.0072
 6630SOL    HW125708   0.325   6.057   4.788  0.1717  0.2099  0.1101
 6630SOL    HW225709   0.278   5.919   4.830  0.5221 -0.2143 -0.8772
 6630SOL     MW25710   0.313   5.996   4.850 -0.6727  0.1407 -0.1030
 6631SOL     OW25711   5.435   1.363   5.434 -0.2854 -0.2252  0.0149
 6631SOL    HW125712   5.435   1.392   5.525  0.3138  3.1349 -0.9625
 6631SOL    HW225713   5.458   1.442   5.384 -1.8486 -1.6570 -3.1318
 6631SOL     MW25714   5.438   1.377   5.439 -0.4091  0.0217 -0.5131
 6632SOL     OW25715   0.367   3.247   0.594  0.2848  0.1734  0.5153
 6632SOL    HW125716   0.350   3.241   0.688  2.0678 -1.4669  0.7649
 6632SOL    HW225717   0.398   3.336   0.581  2.7143 -0.4306  1.9606
 6632SOL     MW25718   0.368   3.257   0.605  0.8241 -0.1137  0.7323
 6633SOL     OW25719   2.888   3.790   5.712 -0.1528 -0.0118 -0.1330
 6633SOL    HW125720   2.952   3.826   5.772 -0.9093 -1.9889  1.9090
 6633SOL    HW225721   2.829   3.863   5.693  0.8800  0.9817  0.4280
 6633SOL     MW25722   2.889   3.804   5.717 -0.1173 -0.1376  0.1998
 6634SOL     OW25723   5.564   2.507   0.846 -0.0611 -0.2055  0.0530
 6634SOL    HW125724   5.568   2.587   0.900  1.1085  0.1734 -0.5867
 6634SOL    HW225725   5.502   2.529   0.776 -1.3728 -0.6033  1.0558
 6634SOL     MW25726   5.556   2.520   0.844 -0.0792 -0.2081  0.0994
 6635SOL     OW25727   5.998   3.345   1.375  0.7153  0.6166 -0.0076
 6635SOL    HW125728   5.961   3.302   1.298  0.8166 -0.4157  0.5159
 6635SOL    HW225729   6.092   3.333   1.367  0.6390 -0.9751  1.1175
 6635SOL     MW25730   6.005   3.338   1.364  0.7186  0.2806  0.2035
 6636SOL     OW25731   2.113   4.174   2.069 -0.5983 -0.7551  0.0166
 6636SOL    HW125732   2.111   4.196   1.976  0.2279  0.3525  0.2475
 6636SOL    HW225733   2.196   4.210   2.100 -1.6596  0.4409  1.5615
 6636SOL     MW25734   2.123   4.181   2.061 -0.6282 -0.4601  0.2437
 6637SOL     OW25735   1.753   2.809   4.343 -0.0496 -0.8390  0.2946
 6637SOL    HW125736   1.688   2.809   4.414  0.4754 -2.5945  0.8000
 6637SOL    HW225737   1.771   2.902   4.327 -3.3843 -0.2739 -0.5120
 6637SOL     MW25738   1.747   2.821   4.350 -0.4094 -0.9916  0.2565
 6638SOL     OW25739   1.952   0.638   0.640 -0.3862 -0.1845  0.0670
 6638SOL    HW125740   1.903   0.560   0.663  1.5636 -1.1909  0.9458
 6638SOL    HW225741   2.042   0.618   0.665  0.2705  2.0687 -0.3723
 6638SOL     MW25742   1.957   0.625   0.646 -0.0525 -0.0250  0.1234
 6639SOL     OW25743   0.012   4.194   4.811  0.5836  0.7838 -0.3243
 6639SOL    HW125744   0.015   4.108   4.769 -3.0216 -0.1814  1.2517
 6639SOL    HW225745  -0.063   4.238   4.771 -1.0289  1.0068  2.8371
 6639SOL     MW25746   0.003   4.189   4.800 -0.0844  0.6886  0.2823
 6640SOL     OW25747   2.471   4.536   0.259  0.0372  0.5637  0.4579
 6640SOL    HW125748   2.516   4.603   0.310  1.6061 -1.1255  1.3840
 6640SOL    HW225749   2.537   4.505   0.197 -0.8248  0.2229 -0.2990
 6640SOL     MW25750   2.485   4.540   0.257  0.1278  0.3042  0.4795
 6641SOL     OW25751   4.186   1.793   1.714  0.3348 -0.4624 -0.4590
 6641SOL    HW125752   4.183   1.786   1.618 -0.7722 -3.7423 -0.2455
 6641SOL    HW225753   4.117   1.856   1.735 -0.0577 -0.4407 -1.7520
 6641SOL     MW25754   4.177   1.800   1.704  0.1431 -0.8794 -0.5971
 6642SOL     OW25755   0.439   3.600   4.111  0.2225  0.1093  0.1413
 6642SOL    HW125756   0.443   3.689   4.076  1.9577  0.8648  2.1529
 6642SOL    HW225757   0.528   3.582   4.143 -0.3015 -2.0530  0.5063
 6642SOL     MW25758   0.451   3.609   4.111  0.3775 -0.0708  0.4458
 6643SOL     OW25759   1.030   4.827   4.157 -0.0998 -0.3477  0.0800
 6643SOL    HW125760   0.988   4.886   4.220 -0.8166  0.2586 -0.9441
 6643SOL    HW225761   1.121   4.856   4.154 -0.3947  0.5842 -0.2377
 6643SOL     MW25762   1.036   4.838   4.164 -0.2294 -0.1512 -0.0916
 6644SOL     OW25763   2.670   4.267   4.184 -0.6261  0.0823 -0.0153
 6644SOL    HW125764   2.630   4.317   4.255  0.0033 -1.8877  1.7690
 6644SOL    HW225765   2.758   4.303   4.175 -0.1423 -0.7446  1.3273
 6644SOL     MW25766   2.676   4.278   4.192 -0.4835 -0.2756  0.3848
 6645SOL     OW25767   0.364   1.558   5.471 -0.5168 -0.4872 -0.0016
 6645SOL    HW125768   0.432   1.573   5.536 -0.8130 -0.3428  0.2722
 6645SOL    HW225769   0.290   1.612   5.499 -0.4811 -0.0710 -0.7062
 6645SOL     MW25770   0.363   1.567   5.483 -0.5502 -0.4154 -0.0577
 6646SOL     OW25771   0.628   2.850   4.217 -0.4154 -0.4055 -0.8634
 6646SOL    HW125772   0.610   2.928   4.270  0.6298  0.4498 -1.7348
 6646SOL    HW225773   0.542   2.815   4.195 -0.8922  0.4416 -0.3514
 6646SOL     MW25774   0.615   2.855   4.221 -0.3427 -0.1874 -0.9093
 6647SOL     OW25775   5.857   1.544   2.766 -0.5568  0.4382 -0.3821
 6647SOL    HW125776   5.767   1.524   2.740 -0.0641 -1.3892 -0.7430
 6647SOL    HW225777   5.861   1.519   2.858 -0.7067  1.5756 -0.0511
 6647SOL     MW25778   5.846   1.539   2.775 -0.5131  0.3499 -0.3862
 6648SOL     OW25779   0.308   1.165   3.951  0.2856 -0.4398 -0.1955
 6648SOL    HW125780   0.404   1.164   3.952  0.3356  1.5846  0.5666
 6648SOL    HW225781   0.285   1.239   4.008 -1.7316 -0.9823 -0.2749
 6648SOL     MW25782   0.317   1.174   3.959  0.0337 -0.2500 -0.1080
 6649SOL     OW25783   1.557   1.518   3.517  0.4305  0.3414 -0.3011
 6649SOL    HW125784   1.555   1.439   3.571 -1.0054 -0.7082 -1.8332
 6649SOL    HW225785   1.609   1.581   3.568 -0.7503 -0.6428  2.2315
 6649SOL     MW25786   1.563   1.516   3.531  0.0956  0.0811 -0.1731
 6650SOL     OW25787   1.668   3.995   5.680 -0.0751  0.7873  0.1945
 6650SOL    HW125788   1.745   4.047   5.657  0.3023  0.0496 -0.2327
 6650SOL    HW225789   1.697   3.904   5.671 -0.1494  0.4471  2.7897
 6650SOL     MW25790   1.682   3.990   5.676 -0.0362  0.6492  0.4716
 6651SOL     OW25791   2.867   3.450   1.518  0.2251 -0.3672  0.0795
 6651SOL    HW125792   2.891   3.481   1.605  1.9759 -1.6146  0.0819
 6651SOL    HW225793   2.856   3.355   1.528  0.3722 -0.5130 -1.0388
 6651SOL     MW25794   2.869   3.442   1.530  0.4680 -0.5455 -0.0632
 6652SOL     OW25795   2.778   4.256   3.225 -0.1310 -0.3083  0.6162
 6652SOL    HW125796   2.786   4.172   3.179 -0.2894 -1.1650  2.1113
 6652SOL    HW225797   2.863   4.298   3.212  0.0966 -0.8810  0.2044
 6652SOL     MW25798   2.790   4.251   3.218 -0.1218 -0.4916  0.7548
 6653SOL     OW25799   0.519   4.264   1.873 -0.0104  0.8455  0.0189
 6653SOL    HW125800   0.585   4.211   1.918 -2.6483 -0.9971  1.8595
 6653SOL    HW225801   0.548   4.355   1.887  2.5617  0.0845  0.0164
 6653SOL     MW25802   0.531   4.269   1.880 -0.0188  0.5121  0.2542
 6654SOL     OW25803   0.502   3.291   1.682 -0.1356  0.4840  0.4825
 6654SOL    HW125804   0.584   3.267   1.639  0.1965  2.1743  0.1443
 6654SOL    HW225805   0.523   3.289   1.776 -0.1416 -0.5999  0.4674
 6654SOL     MW25806   0.515   3.287   1.689 -0.0939  0.5617  0.4374
 6655SOL     OW25807   0.039   1.695   3.088 -0.1655 -0.1247  0.6500
 6655SOL    HW125808   0.123   1.650   3.089 -0.2976 -0.3951 -0.2308
 6655SOL    HW225809  -0.023   1.631   3.052 -0.4163  0.6401 -0.2992
 6655SOL     MW25810   0.042   1.681   3.084 -0.2145 -0.0615  0.4158
 6656SOL     OW25811   4.052   0.073   5.643 -0.0504  0.0683  0.3126
 6656SOL    HW125812   4.090   0.079   5.556  1.6905  0.5064  1.0814
 6656SOL    HW225813   4.032   0.163   5.668 -0.4414 -0.0441  0.4139
 6656SOL     MW25814   4.054   0.085   5.635  0.1225  0.1100  0.4234
 6657SOL     OW25815   4.672   1.691   2.967 -0.6284  0.1291  0.0847
 6657SOL    HW125816   4.676   1.786   2.953  2.3116 -0.0346 -0.5012
 6657SOL    HW225817   4.748   1.672   3.020 -0.9807 -1.9723 -0.1434
 6657SOL     MW25818   4.682   1.701   2.972 -0.2971 -0.1609 -0.0196
 6658SOL     OW25819   5.311   3.720   5.699 -0.8499 -0.2706 -0.4009
 6658SOL    HW125820   5.361   3.712   5.618  0.8324 -0.4069  0.6325
 6658SOL    HW225821   5.288   3.813   5.703 -0.6955 -0.2062 -0.8800
 6658SOL     MW25822   5.315   3.731   5.689 -0.6146 -0.2799 -0.3300
 6659SOL     OW25823   5.588   5.879   2.958  0.3276 -0.6237 -0.2439
 6659SOL    HW125824   5.601   5.857   3.050 -0.4459  0.5885  0.1591
 6659SOL    HW225825   5.506   5.837   2.934  1.1035 -1.9077 -0.7119
 6659SOL     MW25826   5.579   5.871   2.966  0.3281 -0.6328 -0.2525
 6660SOL     OW25827   0.298   2.398   3.603  0.2041  0.1757 -0.2224
 6660SOL    HW125828   0.349   2.468   3.644 -0.1933  1.2976 -1.6150
 6660SOL    HW225829   0.364   2.335   3.574  0.6989  0.8763 -0.6357
 6660SOL     MW25830   0.313   2.399   3.605  0.2165  0.4091 -0.4535
 6661SOL     OW25831   2.430   1.175   0.954 -0.1411  0.3639 -0.6130
 6661SOL    HW125832   2.414   1.126   1.034  1.4908 -1.1670 -1.2000
 6661SOL    HW225833   2.379   1.129   0.887 -0.7275  1.0640 -0.6585
 6661SOL     MW25834   2.421   1.163   0.956 -0.0072  0.2575 -0.6940
 6662SOL     OW25835   4.715   4.909   3.022  0.2255 -0.0222 -0.2138
 6662SOL    HW125836   4.758   4.829   2.993  0.2624 -0.2872  0.5644
 6662SOL    HW225837   4.772   4.979   2.990  2.7421 -0.4307  3.0558
 6662SOL     MW25838   4.728   4.908   3.015  0.5527 -0.1087  0.3040
 6663SOL     OW25839   4.954   3.354   1.825  0.2740 -0.6575 -0.3061
 6663SOL    HW125840   4.949   3.444   1.857  1.7572 -1.4506  2.3498
 6663SOL    HW225841   4.949   3.301   1.904 -2.4483 -3.0151 -1.9864
 6663SOL     MW25842   4.953   3.359   1.839  0.1154 -1.0610 -0.1813
 6664SOL     OW25843   4.746   2.053   1.397  0.1468 -0.0831  0.3634
 6664SOL    HW125844   4.810   2.029   1.330  2.7099 -0.1686  2.7438
 6664SOL    HW225845   4.702   1.970   1.418 -0.1224 -0.2017 -0.6280
 6664SOL     MW25846   4.748   2.039   1.391  0.4406 -0.1092  0.5412
 6665SOL     OW25847   5.267   3.167   4.048  0.4888 -0.2099 -0.7433
 6665SOL    HW125848   5.273   3.262   4.034 -1.7271 -0.2710 -2.3945
 6665SOL    HW225849   5.173   3.149   4.052  0.8742 -2.3669 -0.6787
 6665SOL     MW25850   5.255   3.177   4.047  0.2546 -0.4938 -0.9460
 6666SOL     OW25851   5.968   3.353   4.388  0.1499 -0.5469  0.5212
 6666SOL    HW125852   5.974   3.445   4.360 -1.3009 -0.2561  1.1037
 6666SOL    HW225853   6.057   3.319   4.378  0.5683  0.7497 -0.3015
 6666SOL     MW25854   5.980   3.361   4.383  0.0176 -0.3438  0.4902
 6667SOL     OW25855   3.304   0.215   4.069 -0.1881 -0.3831 -0.1389
 6667SOL    HW125856   3.239   0.208   3.999  0.1949 -2.2248 -0.3495
 6667SOL    HW225857   3.374   0.268   4.032 -0.3081 -0.7597 -0.9115
 6667SOL     MW25858   3.305   0.221   4.055 -0.1543 -0.6671 -0.2646
 6668SOL     OW25859   2.350   2.811   0.665 -0.2969  0.2786  0.5207
 6668SOL    HW125860   2.255   2.812   0.654 -0.2812 -0.6195  0.2485
 6668SOL    HW225861   2.368   2.729   0.712  0.5237 -0.6355 -1.3047
 6668SOL     MW25862   2.340   2.800   0.669 -0.1895  0.0467  0.2522
 6669SOL     OW25863   3.717   0.598   0.547 -0.4084 -0.0429 -0.3582
 6669SOL    HW125864   3.723   0.678   0.494 -1.7184 -0.4610 -1.1668
 6669SOL    HW225865   3.744   0.626   0.634  0.0949  1.0631 -0.8505
 6669SOL     MW25866   3.721   0.612   0.551 -0.5119  0.0452 -0.5248
 6670SOL     OW25867   2.028   3.165   4.679  0.5007  0.4710  0.3038
 6670SOL    HW125868   2.019   3.255   4.647 -2.6706  0.1391  0.0934
 6670SOL    HW225869   2.017   3.172   4.773 -0.2824  0.2611  0.2329
 6670SOL     MW25870   2.026   3.178   4.687 -0.0052  0.4015  0.2675
 6671SOL     OW25871   5.878   0.279   5.096 -0.3004 -0.7565  0.3453
 6671SOL    HW125872   5.785   0.291   5.080  0.3885  1.8289 -2.1461
 6671SOL    HW225873   5.883   0.242   5.184 -3.6337 -0.8067  0.5646
 6671SOL     MW25874   5.867   0.275   5.105 -0.6390 -0.4320  0.0544
 6672SOL     OW25875   5.727   4.145   3.086  0.1900  0.0978  0.9229
 6672SOL    HW125876   5.793   4.138   3.017 -0.8421  0.1522 -0.0770
 6672SOL    HW225877   5.726   4.238   3.109  0.3941  0.1119  0.8765
 6672SOL     MW25878   5.735   4.156   3.080  0.0839  0.1068  0.7892
 6673SOL     OW25879   4.189   5.068   2.239 -0.0259  0.2275  0.4046
 6673SOL    HW125880   4.223   5.154   2.215  1.0113 -0.0124  0.9893
 6673SOL    HW225881   4.214   5.057   2.331  0.8837 -1.1844  0.0044
 6673SOL     MW25882   4.196   5.078   2.248  0.2232  0.0162  0.4282
 6674SOL     OW25883   3.184   5.687   2.386  0.6061  0.3892  0.5898
 6674SOL    HW125884   3.139   5.616   2.432  0.7628  0.6578  1.1607
 6674SOL    HW225885   3.275   5.658   2.382  0.7735  0.8185  1.3261
 6674SOL     MW25886   3.190   5.674   2.391  0.6475  0.4783  0.7572
 6675SOL     OW25887   4.699   2.370   1.797  0.4668 -0.2370  0.0637
 6675SOL    HW125888   4.606   2.389   1.790  0.0139 -1.9747  1.0150
 6675SOL    HW225889   4.710   2.286   1.752  1.0370 -1.4807  2.4395
 6675SOL     MW25890   4.689   2.362   1.790  0.4816 -0.6187  0.4895
 6676SOL     OW25891   0.472   0.287   5.360 -0.5395  0.2383  0.0294
 6676SOL    HW125892   0.498   0.379   5.353  2.2846 -0.5771 -1.0435
 6676SOL    HW225893   0.534   0.250   5.424  0.6769 -1.6711 -2.1932
 6676SOL     MW25894   0.483   0.294   5.368 -0.0223 -0.1105 -0.3924
 6677SOL     OW25895   5.477   0.938   5.007 -0.0674 -0.1716  0.4880
 6677SOL    HW125896   5.397   0.974   5.044 -0.2297  0.8610 -0.8198
 6677SOL    HW225897   5.509   0.876   5.072 -2.0235 -0.7193  0.9301
 6677SOL     MW25898   5.471   0.935   5.020 -0.3390 -0.1096  0.3772
 6678SOL     OW25899   0.175   0.251   0.360 -0.9368  0.2386  0.2905
 6678SOL    HW125900   0.235   0.266   0.287 -2.0269  0.3774 -0.5932
 6678SOL    HW225901   0.179   0.333   0.411  0.5087 -0.2019  0.9031
 6678SOL     MW25902   0.183   0.264   0.358 -0.8913  0.1999  0.2558
 6679SOL     OW25903   4.989   1.077   2.746  0.5545  1.0050  0.1757
 6679SOL    HW125904   4.915   1.028   2.709  0.3099  2.3524 -1.2036
 6679SOL    HW225905   4.982   1.063   2.840  0.2520 -1.2435 -0.1565
 6679SOL     MW25906   4.978   1.069   2.753  0.4845  0.8898 -0.0434
 6680SOL     OW25907   3.316   3.681   2.740  0.1977  0.2463 -0.4490
 6680SOL    HW125908   3.245   3.632   2.699  0.9015 -1.0497 -0.1490
 6680SOL    HW225909   3.311   3.768   2.700 -0.0242 -0.5522 -2.2254
 6680SOL     MW25910   3.306   3.686   2.730  0.2594 -0.0217 -0.6378
 6681SOL     OW25911   2.312   0.025   2.695  0.0472 -0.5317 -0.3009
 6681SOL    HW125912   2.397   0.025   2.651  0.1351 -2.3368 -0.1672
 6681SOL    HW225913   2.265  -0.050   2.658 -0.8786 -0.5008  0.7682
 6681SOL     MW25914   2.317   0.016   2.685 -0.0601 -0.7586 -0.1469
 6682SOL     OW25915   1.788   3.279   5.716 -0.4795  0.0315 -0.1156
 6682SOL    HW125916   1.835   3.311   5.639  1.0174 -0.9898  0.3531
 6682SOL    HW225917   1.801   3.347   5.782  0.7841 -0.4692  0.1689
 6682SOL     MW25918   1.796   3.292   5.715 -0.1262 -0.1636 -0.0186
 6683SOL     OW25919   0.609   5.345   5.577 -0.4610 -0.1835  0.1778
 6683SOL    HW125920   0.599   5.297   5.495  1.0389  1.4453 -0.9940
 6683SOL    HW225921   0.686   5.400   5.563 -0.9018  1.0031  2.2504
 6683SOL     MW25922   0.618   5.346   5.565 -0.3254  0.1764  0.2933
 6684SOL     OW25923   0.834   5.388   0.505 -0.3721  0.2416  0.3435
 6684SOL    HW125924   0.880   5.349   0.431  0.0883  3.6089 -1.2244
 6684SOL    HW225925   0.794   5.313   0.550  2.3459 -2.2477 -1.1830
 6684SOL     MW25926   0.835   5.373   0.502  0.0348  0.3538 -0.0526
 6685SOL     OW25927   1.406   0.038   4.349  0.2672 -0.6262  0.6021
 6685SOL    HW125928   1.330  -0.006   4.313 -0.4185  0.2974  0.9067
 6685SOL    HW225929   1.400   0.022   4.444 -0.5769  1.0167  0.8355
 6685SOL     MW25930   1.396   0.030   4.357  0.0714 -0.2976  0.6709
 6686SOL     OW25931   1.753   0.939   2.096  0.3798 -0.2691  0.6277
 6686SOL    HW125932   1.703   0.970   2.172  0.0160  0.0011  0.2789
 6686SOL    HW225933   1.702   0.967   2.020  1.1379  0.1332  0.2639
 6686SOL     MW25934   1.740   0.946   2.096  0.4302 -0.1830  0.5364
 6687SOL     OW25935   0.897   5.653   3.552  0.7120 -0.5723  0.3099
 6687SOL    HW125936   0.898   5.709   3.474  0.2212 -1.0797 -0.0678
 6687SOL    HW225937   0.810   5.669   3.590  1.6673  1.1700  1.8588
 6687SOL     MW25938   0.886   5.662   3.547  0.7715 -0.4139  0.4597
 6688SOL     OW25939   4.254   1.445   0.656 -0.0775  0.0054  0.3958
 6688SOL    HW125940   4.287   1.397   0.581 -1.6830  0.6190 -0.7227
 6688SOL    HW225941   4.296   1.403   0.732 -0.5286 -2.3753 -0.6263
 6688SOL     MW25942   4.264   1.433   0.656 -0.3409 -0.2209  0.1218
 6689SOL     OW25943   4.378   5.721   5.155  0.2951  0.2821  0.1890
 6689SOL    HW125944   4.369   5.737   5.061  2.9723 -2.2539 -0.5595
 6689SOL    HW225945   4.441   5.787   5.184  0.9162 -0.1471 -0.1771
 6689SOL     MW25946   4.385   5.732   5.147  0.7167 -0.0978  0.0467
 6690SOL     OW25947   2.150   4.649   0.655  0.0793 -0.0189  0.2738
 6690SOL    HW125948   2.212   4.712   0.617  0.0768 -1.4228 -2.1829
 6690SOL    HW225949   2.193   4.564   0.643 -1.8872 -0.9184 -0.5964
 6690SOL     MW25950   2.164   4.646   0.649 -0.1729 -0.3138 -0.1521
 6691SOL     OW25951   0.669   3.230   0.861 -0.0021 -0.1527 -0.4459
 6691SOL    HW125952   0.701   3.225   0.771 -0.0182  0.0423 -0.4612
 6691SOL    HW225953   0.739   3.192   0.913  1.5502  2.9996 -0.1516
 6691SOL     MW25954   0.682   3.224   0.856  0.1946  0.2756 -0.4101
 6692SOL     OW25955   2.784   1.209   2.046 -0.0131 -0.2676  0.0048
 6692SOL    HW125956   2.740   1.226   1.963 -0.4611 -1.9316 -0.1305
 6692SOL    HW225957   2.818   1.120   2.037 -1.0511 -0.8999  2.0126
 6692SOL     MW25958   2.783   1.199   2.034 -0.2031 -0.5616  0.2446
 6693SOL     OW25959   5.866   1.299   0.832 -0.1330  0.0168 -0.2785
 6693SOL    HW125960   5.923   1.237   0.877  0.8214  1.3284  0.3325
 6693SOL    HW225961   5.779   1.281   0.867 -0.3248 -2.7414 -2.0110
 6693SOL     MW25962   5.862   1.288   0.842 -0.0353 -0.1684 -0.4221
 6694SOL     OW25963   5.666   2.825   2.142  0.2239  0.6382  0.2673
 6694SOL    HW125964   5.680   2.889   2.212 -0.9874 -2.1528  3.1947
 6694SOL    HW225965   5.712   2.747   2.172 -2.6225 -1.4830 -0.6867
 6694SOL     MW25966   5.674   2.823   2.155 -0.2961  0.0095  0.5200
 6695SOL     OW25967   5.046   0.911   5.708 -0.2917 -0.2799  0.4165
 6695SOL    HW125968   4.958   0.876   5.692 -0.6640  1.1089 -0.6951
 6695SOL    HW225969   5.032   1.005   5.722  1.0523  0.0294 -0.2082
 6695SOL     MW25970   5.033   0.919   5.708 -0.1669 -0.0625  0.1941
 6696SOL     OW25971   2.584   2.017   2.877 -0.4952 -0.0003 -0.8122
 6696SOL    HW125972   2.517   2.081   2.855  0.7376  0.8727 -2.1271
 6696SOL    HW225973   2.547   1.968   2.951 -2.8284  0.0514 -1.8789
 6696SOL     MW25974   2.570   2.019   2.884 -0.6361  0.1183 -1.1170
 6697SOL     OW25975   0.560   4.804   0.489 -0.9831  0.0822 -0.1849
 6697SOL    HW125976   0.484   4.823   0.434 -0.5553  1.1432 -0.4230
 6697SOL    HW225977   0.583   4.888   0.529 -1.0135 -0.5812  1.2764
 6697SOL     MW25978   0.553   4.817   0.487 -0.9322  0.1330 -0.0284
 6698SOL     OW25979   2.247   1.621   5.168 -0.3011  0.7629 -0.3483
 6698SOL    HW125980   2.170   1.581   5.126  0.2839  0.9480 -1.6215
 6698SOL    HW225981   2.299   1.547   5.198  0.3471  0.5670 -1.9172
 6698SOL     MW25982   2.243   1.606   5.166 -0.1433  0.7616 -0.7119
 6699SOL     OW25983   4.659   2.939   2.809  0.1876  0.0218 -0.5314
 6699SOL    HW125984   4.733   2.893   2.770 -0.8520 -0.2877 -2.1752
 6699SOL    HW225985   4.647   3.016   2.754 -1.9628 -0.9597 -1.5117
 6699SOL     MW25986   4.667   2.943   2.797 -0.2213 -0.1435 -0.8674
 6700SOL     OW25987   2.915   4.556   2.108  0.0919 -0.7792 -0.3401
 6700SOL    HW125988   3.000   4.532   2.070  0.6396  0.7225 -0.1118
 6700SOL    HW225989   2.856   4.561   2.033  0.9878  1.4273 -0.9321
 6700SOL     MW25990   2.918   4.553   2.094  0.2766 -0.3047 -0.3870
 6701SOL     OW25991   5.600   4.896   0.947  0.5296  0.1435  0.9521
 6701SOL    HW125992   5.687   4.907   0.987 -0.1507  3.4502  1.7286
 6701SOL    HW225993   5.613   4.829   0.880  3.5737  0.1827  1.3990
 6701SOL     MW25994   5.613   4.889   0.943  0.8321  0.5713  1.1087
 6702SOL     OW25995   0.019   4.564   5.735  0.3767 -0.1981 -0.5092
 6702SOL    HW125996   0.077   4.557   5.811  1.0967  0.9958 -0.9322
 6702SOL    HW225997  -0.002   4.473   5.713  1.8325 -0.6460 -0.1383
 6702SOL     MW25998   0.024   4.552   5.742  0.6552 -0.1030 -0.5159
 6703SOL     OW25999   3.068   0.237   3.841  0.3222  0.0879  0.5268
 6703SOL    HW126000   3.049   0.319   3.886 -0.2262  0.2851 -0.0514
 6703SOL    HW226001   3.081   0.262   3.750  1.7251 -0.2706  0.6116
 6703SOL     MW26002   3.067   0.251   3.835  0.4315  0.0673  0.4635
 6704SOL     OW26003   3.924   1.653   3.612  0.0572 -0.1975 -0.3171
 6704SOL    HW126004   3.871   1.634   3.534 -0.1431  1.0931 -0.5030
 6704SOL    HW226005   3.966   1.737   3.592  1.6291 -0.8537  0.1150
 6704SOL     MW26006   3.923   1.661   3.599  0.2327 -0.1163 -0.2854
 6705SOL     OW26007   4.481   4.506   4.871  0.3266  0.4849  0.0069
 6705SOL    HW126008   4.447   4.472   4.954 -3.2330  0.0136 -1.5589
 6705SOL    HW226009   4.543   4.439   4.842  0.0106 -0.3820  1.2625
 6705SOL     MW26010   4.485   4.493   4.878 -0.1693  0.3142 -0.0329
 6706SOL     OW26011   2.951   3.138   2.666 -0.2313  0.1648 -0.0185
 6706SOL    HW126012   2.910   3.103   2.745 -0.8943 -1.0099 -0.8624
 6706SOL    HW226013   3.026   3.189   2.698 -1.9634  1.8391  1.5057
 6706SOL     MW26014   2.955   3.140   2.680 -0.5381  0.2286  0.0687
 6707SOL     OW26015   5.763   3.179   0.505 -0.1795 -0.7759 -0.0667
 6707SOL    HW126016   5.671   3.161   0.486 -1.0658  0.9122  2.4062
 6707SOL    HW226017   5.793   3.233   0.432 -1.3639 -0.6434 -0.4611
 6707SOL     MW26018   5.755   3.183   0.493 -0.4449 -0.5426  0.1994
 6708SOL     OW26019   0.043   4.458   3.030 -1.0975 -0.5478 -0.0161
 6708SOL    HW126020   0.138   4.457   3.015 -1.3301 -1.0419 -1.5838
 6708SOL    HW226021   0.008   4.507   2.955 -2.1886 -1.4850 -0.1265
 6708SOL     MW26022   0.051   4.464   3.018 -1.2670 -0.7305 -0.2306
 6709SOL     OW26023   4.910   4.785   2.410 -0.5833 -0.1331  0.2368
 6709SOL    HW126024   4.901   4.847   2.339 -1.0440 -0.1776  0.2531
 6709SOL    HW226025   4.871   4.704   2.377  1.8990 -1.0420 -0.5587
 6709SOL     MW26026   4.904   4.782   2.397 -0.3252 -0.2551  0.1371
 6710SOL     OW26027   0.056   2.575   3.281 -0.2268  0.0071  0.2825
 6710SOL    HW126028   0.115   2.642   3.246 -0.0784 -0.6097 -0.6627
 6710SOL    HW226029   0.007   2.620   3.350  0.4921  0.8497  0.2470
 6710SOL     MW26030   0.057   2.589   3.285 -0.1158  0.0360  0.1566
 6711SOL     OW26031   4.403   4.237   4.231  0.0643 -0.1046  0.2461
 6711SOL    HW126032   4.379   4.323   4.198 -0.1966 -0.3285 -0.1569
 6711SOL    HW226033   4.477   4.253   4.289  0.6005  0.2850 -0.5393
 6711SOL     MW26034   4.410   4.250   4.234  0.0997 -0.0834  0.0944
 6712SOL     OW26035   3.146   4.714   1.677  0.4492 -0.6268  0.3373
 6712SOL    HW126036   3.133   4.767   1.755  0.1474 -1.2468  0.7167
 6712SOL    HW226037   3.241   4.715   1.663  0.5173 -0.6186  0.7870
 6712SOL     MW26038   3.157   4.721   1.685  0.4194 -0.7057  0.4435
 6713SOL     OW26039   1.654   5.261   5.585  0.0622  0.4143  0.2366
 6713SOL    HW126040   1.693   5.348   5.590 -0.7220  0.7081  1.5283
 6713SOL    HW226041   1.693   5.213   5.658  0.5414 -0.3454 -0.5071
 6713SOL     MW26042   1.664   5.266   5.595  0.0231  0.3543  0.3071
 6714SOL     OW26043   0.375   1.080   2.993  0.7014 -0.5209  0.6524
 6714SOL    HW126044   0.300   1.027   3.021  0.2836  0.0421  0.6123
 6714SOL    HW226045   0.429   1.020   2.942 -1.1531 -0.2219 -1.7422
 6714SOL     MW26046   0.372   1.066   2.990  0.4106 -0.4106  0.3405
 6715SOL     OW26047   1.870   5.861   0.185 -0.1303 -0.1851  0.4939
 6715SOL    HW126048   1.839   5.774   0.210 -0.0693 -0.0246  1.1315
 6715SOL    HW226049   1.792   5.906   0.153  0.2714 -1.2769 -2.1402
 6715SOL     MW26050   1.856   5.856   0.184 -0.0709 -0.3042  0.2383
 6716SOL     OW26051   0.737   3.087   2.459 -0.1239 -0.6448 -0.0089
 6716SOL    HW126052   0.701   3.118   2.542 -1.2422 -2.0792  0.0713
 6716SOL    HW226053   0.661   3.051   2.413  0.9956 -2.6926 -0.3245
 6716SOL     MW26054   0.723   3.086   2.464 -0.1238 -1.0903 -0.0391
 6717SOL     OW26055   0.247   3.573   0.684  0.0289  0.3093  0.1803
 6717SOL    HW126056   0.278   3.612   0.603 -0.8334 -0.6712 -0.6342
 6717SOL    HW226057   0.326   3.544   0.730  0.3372 -2.3967 -1.9733
 6717SOL     MW26058   0.261   3.574   0.680 -0.0421 -0.1628 -0.1996
 6718SOL     OW26059   0.678   2.472   3.228  0.5250 -0.1966 -0.1479
 6718SOL    HW126060   0.645   2.500   3.143 -0.9069 -0.8548  0.1795
 6718SOL    HW226061   0.652   2.541   3.288 -0.4926 -0.8343  0.1534
 6718SOL     MW26062   0.671   2.484   3.225  0.2115 -0.3624 -0.0672
 6719SOL     OW26063   1.321   0.372   1.566  0.2864  0.2270 -0.0156
 6719SOL    HW126064   1.361   0.361   1.652 -0.0846 -1.9025 -0.0753
 6719SOL    HW226065   1.388   0.414   1.513  1.0700  0.1560  0.9040
 6719SOL     MW26066   1.334   0.376   1.570  0.3390 -0.0547  0.0944
 6720SOL     OW26067   0.583   5.915   4.793  0.2462 -0.8586 -0.1104
 6720SOL    HW126068   0.503   5.940   4.839  1.0747  0.1469  0.7873
 6720SOL    HW226069   0.640   5.879   4.861  0.7409 -1.1468 -0.6710
 6720SOL     MW26070   0.580   5.913   4.808  0.4156 -0.7668 -0.0668
 6721SOL     OW26071   5.562   1.835   1.561 -0.2617  0.4264  0.0814
 6721SOL    HW126072   5.602   1.845   1.647  1.2462 -0.9130 -0.4350
 6721SOL    HW226073   5.636   1.830   1.501 -1.2692 -0.0900 -1.1301
 6721SOL     MW26074   5.576   1.836   1.564 -0.1979  0.1891 -0.1396
 6722SOL     OW26075   5.805   0.101   2.802  0.6009 -0.1950 -0.7326
 6722SOL    HW126076   5.729   0.048   2.776  0.4862 -0.5980  0.3530
 6722SOL    HW226077   5.794   0.184   2.755 -0.4509 -0.2947 -0.6892
 6722SOL     MW26078   5.794   0.105   2.793  0.4516 -0.2593 -0.5882
 6723SOL     OW26079   4.193   1.909   0.718  0.1029 -0.1146  0.6057
 6723SOL    HW126080   4.099   1.893   0.710 -0.4282  2.0980  1.7997
 6723SOL    HW226081   4.207   1.994   0.675  1.4040 -0.0629  1.0979
 6723SOL     MW26082   4.183   1.918   0.712  0.2012  0.1752  0.8215
 6724SOL     OW26083   4.438   0.816   4.557 -0.7768 -0.1954  0.2457
 6724SOL    HW126084   4.364   0.876   4.551 -0.8246 -0.4115 -1.7437
 6724SOL    HW226085   4.479   0.819   4.470  1.4309 -0.2384  1.2355
 6724SOL     MW26086   4.434   0.824   4.545 -0.5007 -0.2286  0.1173
 6725SOL     OW26087   0.111   2.971   0.663  0.0055  0.3874  0.1441
 6725SOL    HW126088   0.069   2.907   0.720 -0.3047 -0.2892 -0.8279
 6725SOL    HW226089   0.184   3.006   0.715 -0.0843 -0.4382  0.8356
 6725SOL     MW26090   0.115   2.967   0.677 -0.0457  0.1950  0.1082
 6726SOL     OW26091   3.257   4.876   1.316 -0.4740  0.0757  0.3862
 6726SOL    HW126092   3.341   4.873   1.269  0.0982  2.0636  1.2181
 6726SOL    HW226093   3.248   4.789   1.355  0.3281 -0.7320 -1.1916
 6726SOL     MW26094   3.267   4.864   1.315 -0.2980  0.2265  0.2906
 6727SOL     OW26095   3.048   4.848   5.320 -0.1226  0.5321 -0.1318
 6727SOL    HW126096   3.100   4.896   5.256 -2.5169  0.9750 -1.7801
 6727SOL    HW226097   2.994   4.916   5.363 -0.9511 -0.2068  0.0079
 6727SOL     MW26098   3.048   4.863   5.318 -0.5350  0.4940 -0.3252
 6728SOL     OW26099   0.265   3.073   0.872  0.1861 -0.0616  0.0814
 6728SOL    HW126100   0.354   3.088   0.903  0.4409  0.6951 -0.9789
 6728SOL    HW226101   0.217   3.152   0.899  0.0846 -0.0140 -0.2310
 6728SOL     MW26102   0.270   3.085   0.880  0.2057  0.0415 -0.0943
 6729SOL     OW26103   5.030   5.966   4.008 -0.0674 -0.5664 -0.0899
 6729SOL    HW126104   5.030   5.875   4.038  1.2132 -0.3781  0.5126
 6729SOL    HW226105   5.006   6.017   4.085 -0.1150 -0.3345 -0.2552
 6729SOL     MW26106   5.027   5.961   4.021  0.0906 -0.5126 -0.0339
 6730SOL     OW26107   5.121   4.493   5.670 -1.1489 -0.1802 -0.4290
 6730SOL    HW126108   5.093   4.455   5.753  0.9162 -1.0699 -0.1167
 6730SOL    HW226109   5.214   4.511   5.681 -1.1053  0.7676 -2.1520
 6730SOL     MW26110   5.129   4.490   5.682 -0.8783 -0.1726 -0.6099
 6731SOL     OW26111   3.945   4.975   2.701  0.6588 -0.0442  0.6222
 6731SOL    HW126112   3.993   5.057   2.692  1.3922 -0.6467 -1.0519
 6731SOL    HW226113   4.013   4.908   2.711  0.2601 -0.9796 -2.3703
 6731SOL     MW26114   3.960   4.977   2.701  0.7017 -0.2413  0.0250
 6732SOL     OW26115   5.261   1.717   3.664  0.7324 -0.3906 -0.4169
 6732SOL    HW126116   5.294   1.671   3.586 -1.1297  1.0550 -2.1170
 6732SOL    HW226117   5.225   1.648   3.719  4.0596 -1.6946  0.2440
 6732SOL     MW26118   5.261   1.702   3.661  0.9203 -0.3724 -0.5503
 6733SOL     OW26119   2.201   0.380   1.665  0.5434  0.3987  0.5357
 6733SOL    HW126120   2.288   0.402   1.696  0.3958  1.4137  0.2307
 6733SOL    HW226121   2.145   0.387   1.742  0.3354  2.0180  0.2441
 6733SOL     MW26122   2.205   0.384   1.679  0.4978  0.7359  0.4593
 6734SOL     OW26123   0.759   2.490   3.714  0.3216  0.3972 -0.1034
 6734SOL    HW126124   0.705   2.502   3.636 -1.0233 -2.0193  0.4081
 6734SOL    HW226125   0.803   2.574   3.726 -2.5351  2.1114 -1.1340
 6734SOL     MW26126   0.758   2.502   3.706 -0.2164  0.3076 -0.1700
 6735SOL     OW26127   0.754   2.605   2.722 -0.0840 -0.7582  0.0837
 6735SOL    HW126128   0.774   2.554   2.644 -0.5717  1.0786 -1.2730
 6735SOL    HW226129   0.658   2.613   2.722  0.1128  2.1472 -1.0466
 6735SOL     MW26130   0.744   2.600   2.712 -0.1213 -0.1509 -0.2348
 6736SOL     OW26131   4.826   3.783   5.217  0.2041  0.4184  0.2709
 6736SOL    HW126132   4.853   3.843   5.286  0.6043  1.6618 -0.9462
 6736SOL    HW226133   4.906   3.768   5.166 -0.5196  1.1064 -1.0976
 6736SOL     MW26134   4.840   3.789   5.219  0.1631  0.6657 -0.0601
 6737SOL     OW26135   0.060   5.819   4.522  0.1180 -0.3789 -0.4662
 6737SOL    HW126136   0.111   5.870   4.459  1.1769  1.1629  1.5794
 6737SOL    HW226137   0.014   5.885   4.574 -0.0042 -1.5954  0.9865
 6737SOL     MW26138   0.061   5.834   4.521  0.2379 -0.3371 -0.0181
 6738SOL     OW26139   5.417   1.977   3.275 -0.3421  0.1087 -0.1336
 6738SOL    HW126140   5.432   2.018   3.191  2.6350 -0.8976 -0.1519
 6738SOL    HW226141   5.496   1.996   3.326 -1.0000 -1.4234  1.5211
 6738SOL     MW26142   5.429   1.984   3.271 -0.0453 -0.2162  0.0758
 6739SOL     OW26143   1.293   1.207   0.232  0.2417 -0.3499 -0.6115
 6739SOL    HW126144   1.246   1.147   0.174  1.9704 -1.6028 -0.7366
 6739SOL    HW226145   1.377   1.164   0.249  2.2833  2.8652 -2.1253
 6739SOL     MW26146   1.297   1.194   0.227  0.7243 -0.0987 -0.8213
 6740SOL     OW26147   0.937   1.014   5.415  0.4453 -0.1421 -0.4829
 6740SOL    HW126148   1.017   0.967   5.438 -0.6017 -2.1372 -0.7786
 6740SOL    HW226149   0.884   0.949   5.368  0.4111  2.3535 -4.0818
 6740SOL     MW26150   0.940   0.999   5.412  0.3069 -0.0781 -0.9818
 6741SOL     OW26151   1.554   2.362   3.301  0.0810 -0.5763 -0.1253
 6741SOL    HW126152   1.506   2.420   3.242  1.5164  0.9509  0.1806
 6741SOL    HW226153   1.486   2.317   3.351 -1.0589  1.5925  0.3540
 6741SOL     MW26154   1.539   2.364   3.300  0.1189 -0.1030 -0.0250
 6742SOL     OW26155   2.767   4.872   0.438  0.1513 -0.4442 -0.1961
 6742SOL    HW126156   2.788   4.955   0.480 -0.3683  0.0885 -0.9745
 6742SOL    HW226157   2.828   4.865   0.364 -1.1018  0.2063 -1.3205
 6742SOL     MW26158   2.777   4.881   0.434 -0.0756 -0.2928 -0.4397
 6743SOL     OW26159   3.396   2.307   1.261  0.1250  0.3578  0.1711
 6743SOL    HW126160   3.458   2.288   1.331 -0.3228  0.3370  0.5626
 6743SOL    HW226161   3.328   2.361   1.303 -1.0388 -1.0741  0.1671
 6743SOL     MW26162   3.395   2.312   1.275 -0.0811  0.1719  0.2208
 6744SOL     OW26163   3.711   0.379   1.829 -0.2765  0.2313  0.6853
 6744SOL    HW126164   3.742   0.463   1.797 -0.8440  1.2860  2.7977
 6744SOL    HW226165   3.771   0.315   1.791 -0.2060  1.4974 -1.4536
 6744SOL     MW26166   3.722   0.381   1.820 -0.3402  0.5284  0.6819
 6745SOL     OW26167   4.364   2.891   0.960 -0.3360  0.1203  0.1201
 6745SOL    HW126168   4.414   2.810   0.948  0.2906  0.6625 -0.9588
 6745SOL    HW226169   4.431   2.960   0.965 -0.8524  0.5618  1.2079
 6745SOL     MW26170   4.379   2.890   0.959 -0.3219  0.2460  0.1212
 6746SOL     OW26171   5.560   3.472   3.105 -0.2665  0.1785 -0.3173
 6746SOL    HW126172   5.520   3.465   3.192  2.3904 -0.4352  0.9106
 6746SOL    HW226173   5.544   3.387   3.064 -0.5597  0.0788  0.0007
 6746SOL     MW26174   5.553   3.460   3.111  0.0362  0.0873 -0.1192
 6747SOL     OW26175   0.415   4.521   1.059  0.3895  0.2348  0.1882
 6747SOL    HW126176   0.479   4.463   1.018  0.3470  0.5759 -0.3680
 6747SOL    HW226177   0.336   4.512   1.005 -0.5899 -1.4554  1.8283
 6747SOL     MW26178   0.413   4.513   1.047  0.2587  0.0620  0.3269
 6748SOL     OW26179   0.280   4.247   4.252 -0.7340 -0.0288  0.8357
 6748SOL    HW126180   0.260   4.268   4.161  0.1070 -0.1318  0.6192
 6748SOL    HW226181   0.252   4.324   4.301 -0.8573  0.1757  0.4419
 6748SOL     MW26182   0.274   4.260   4.246 -0.6422 -0.0162  0.7577
 6749SOL     OW26183   2.064   3.355   0.171 -0.0986  0.6232 -0.2523
 6749SOL    HW126184   2.073   3.268   0.208 -0.2177  0.1855 -1.2406
 6749SOL    HW226185   1.999   3.399   0.227  2.0517  1.0747  2.0061
 6749SOL     MW26186   2.057   3.350   0.183  0.1614  0.6249 -0.0897
 6750SOL     OW26187   2.572   3.406   4.743 -0.1437 -0.0243 -0.0451
 6750SOL    HW126188   2.641   3.357   4.788  1.2440  0.0405 -2.0524
 6750SOL    HW226189   2.606   3.495   4.737 -2.0954  0.9372  2.4145
 6750SOL     MW26190   2.585   3.411   4.748 -0.2160  0.1070  0.0124
 6751SOL     OW26191   1.678   4.416   0.275 -0.2911 -0.2674 -0.6131
 6751SOL    HW126192   1.749   4.389   0.217  1.7695  0.8249  1.3758
 6751SOL    HW226193   1.708   4.394   0.363 -2.2760  0.5109  0.2949
 6751SOL     MW26194   1.691   4.410   0.279 -0.2815 -0.0281 -0.2422
 6752SOL     OW26195   5.218   2.790   3.492 -0.6677 -0.0225  0.0040
 6752SOL    HW126196   5.237   2.765   3.402 -1.9373 -0.7056 -0.0943
 6752SOL    HW226197   5.294   2.762   3.542 -1.2321 -2.3789 -0.4000
 6752SOL     MW26198   5.230   2.783   3.487 -0.9022 -0.4115 -0.0603
 6753SOL     OW26199   0.823   3.008   5.692  0.4055  0.4901 -0.5822
 6753SOL    HW126200   0.846   3.086   5.742 -0.6500  0.2987  0.2096
 6753SOL    HW226201   0.906   2.978   5.654  0.6439  2.6292 -1.8074
 6753SOL     MW26202   0.836   3.014   5.693  0.3009  0.7396 -0.6380
 6754SOL     OW26203   4.218   5.005   5.831  0.1781  0.3219  0.2817
 6754SOL    HW126204   4.293   5.064   5.835 -0.1510  0.7627  0.0549
 6754SOL    HW226205   4.240   4.941   5.764  0.9892 -0.4454  1.2717
 6754SOL     MW26206   4.230   5.005   5.823  0.2403  0.2804  0.3795
 6755SOL     OW26207   2.705   3.689   0.046 -0.3863 -0.0557  0.6508
 6755SOL    HW126208   2.749   3.630   0.107  2.2238  1.5276  0.4083
 6755SOL    HW226209   2.773   3.710  -0.019 -1.5371  2.4253  0.2112
 6755SOL     MW26210   2.720   3.684   0.045 -0.1998  0.4644  0.5635
 6756SOL     OW26211   4.006   1.911   3.571 -0.4179  0.2266  0.5070
 6756SOL    HW126212   4.089   1.955   3.588  0.4449 -0.6561 -1.1979
 6756SOL    HW226213   3.975   1.949   3.488 -0.0381 -1.7616 -0.5979
 6756SOL     MW26214   4.012   1.921   3.562 -0.2589 -0.1409  0.1471
 6757SOL     OW26215   4.484   2.148   1.980 -0.4532  0.2939 -0.4864
 6757SOL    HW126216   4.443   2.071   2.019  1.6048 -1.4790 -1.7192
 6757SOL    HW226217   4.572   2.150   2.017  0.8593 -0.2853 -3.4615
 6757SOL     MW26218   4.490   2.138   1.990 -0.0219 -0.0072 -1.0251
 6758SOL     OW26219   0.762   0.304   2.080 -0.5448  0.6135  0.0419
 6758SOL    HW126220   0.676   0.272   2.053  0.4887 -1.8011 -0.5291
 6758SOL    HW226221   0.786   0.249   2.155  0.5776  1.1253  0.0787
 6758SOL     MW26222   0.754   0.293   2.086 -0.2688  0.3699 -0.0265
 6759SOL     OW26223   0.250   5.085   4.583 -0.1164  0.2171 -0.3180
 6759SOL    HW126224   0.250   5.166   4.532 -1.0368  0.0819 -0.5432
 6759SOL    HW226225   0.252   5.113   4.674 -1.1764  0.5098 -0.3824
 6759SOL     MW26226   0.250   5.099   4.588 -0.3699  0.2375 -0.3552
 6760SOL     OW26227   1.749   4.811   1.874  0.0351  0.1076 -0.4203
 6760SOL    HW126228   1.831   4.831   1.829 -0.2017  0.3838 -0.7314
 6760SOL    HW226229   1.762   4.723   1.909  0.5288  0.2160 -0.3214
 6760SOL     MW26230   1.761   4.802   1.873  0.0678  0.1569 -0.4475
 6761SOL     OW26231   3.551   5.319   2.732 -0.1751  0.4651  0.0524
 6761SOL    HW126232   3.508   5.378   2.794  0.5148  0.8080  0.2124
 6761SOL    HW226233   3.644   5.341   2.739 -0.1090  0.6965 -1.2905
 6761SOL     MW26234   3.558   5.330   2.740 -0.0784  0.5388 -0.0989
 6762SOL     OW26235   0.082   2.026   3.392 -0.0568 -0.1407  0.3786
 6762SOL    HW126236   0.103   2.119   3.400 -1.4555  0.3080 -0.9148
 6762SOL    HW226237   0.125   1.985   3.467  0.1411  1.6266  1.2478
 6762SOL     MW26238   0.090   2.033   3.403 -0.2105  0.1431  0.3245
 6763SOL     OW26239   0.694   3.622   4.360  0.8125 -0.1221  0.2594
 6763SOL    HW126240   0.693   3.589   4.270  0.9586 -0.0073  0.2147
 6763SOL    HW226241   0.606   3.657   4.373  0.9445  0.3250 -0.0156
 6763SOL     MW26242   0.683   3.622   4.350  0.8481 -0.0501  0.2184
 6764SOL     OW26243   5.677   3.143   1.981  0.3400 -0.4008 -0.2999
 6764SOL    HW126244   5.692   3.127   2.074  0.6524  0.4854 -0.1885
 6764SOL    HW226245   5.744   3.091   1.937  0.3878 -0.5794 -0.0172
 6764SOL     MW26246   5.688   3.134   1.987  0.3862 -0.3102 -0.2495
 6765SOL     OW26247   2.592   0.397   3.580 -0.2642 -0.3728  0.1174
 6765SOL    HW126248   2.671   0.373   3.531 -0.1585 -0.1276  0.1667
 6765SOL    HW226249   2.589   0.335   3.652 -0.3623 -0.6697 -0.1409
 6765SOL     MW26250   2.602   0.386   3.583 -0.2632 -0.3794  0.0904
 6766SOL     OW26251   0.064   2.324   5.793  0.0276  0.3008 -0.2565
 6766SOL    HW126252  -0.010   2.341   5.734 -0.2623 -1.4295 -0.4315
 6766SOL    HW226253   0.131   2.386   5.766 -0.9423  1.1001 -0.8781
 6766SOL     MW26254   0.063   2.334   5.782 -0.1335  0.1814 -0.3586
 6767SOL     OW26255   3.253   5.026   0.118  0.2838  0.0066 -0.1199
 6767SOL    HW126256   3.298   5.055   0.038 -0.5484  0.4393 -0.4472
 6767SOL    HW226257   3.321   5.023   0.185  0.9553 -0.1778 -0.8079
 6767SOL     MW26258   3.267   5.030   0.116  0.2635  0.0381 -0.2499
 6768SOL     OW26259   5.480   2.136   2.398 -0.2338  0.1834 -0.7882
 6768SOL    HW126260   5.494   2.181   2.314  0.6969 -1.8731 -1.7787
 6768SOL    HW226261   5.557   2.078   2.407  0.1976  1.1367  2.0008
 6768SOL     MW26262   5.492   2.134   2.388 -0.0596  0.0422 -0.5577
 6769SOL     OW26263   3.783   1.433   0.183  0.3491 -0.2513 -0.3061
 6769SOL    HW126264   3.854   1.370   0.191  0.6870  0.2325  0.5429
 6769SOL    HW226265   3.786   1.484   0.264  0.4549  1.2634 -1.2375
 6769SOL     MW26266   3.792   1.432   0.195  0.4058  0.0044 -0.3167
 6770SOL     OW26267   5.652   4.123   5.047 -0.1527 -0.0542 -0.3009
 6770SOL    HW126268   5.736   4.162   5.026  0.2343 -0.2843  0.7917
 6770SOL    HW226269   5.634   4.150   5.138 -0.1673 -1.8776  0.2603
 6770SOL     MW26270   5.660   4.131   5.056 -0.1054 -0.3176 -0.0896
 6771SOL     OW26271   4.512   5.059   0.602 -0.5325  0.2191 -0.1135
 6771SOL    HW126272   4.583   5.086   0.544 -0.5218 -1.5424 -0.9579
 6771SOL    HW226273   4.551   4.993   0.659 -1.1464  0.2455  0.3404
 6771SOL     MW26274   4.526   5.054   0.602 -0.6094 -0.0029 -0.1635
 6772SOL     OW26275   4.179   0.998   4.281 -0.1397  0.5697  0.1237
 6772SOL    HW126276   4.094   1.042   4.281 -0.0358  0.7641  0.9634
 6772SOL    HW226277   4.161   0.912   4.244 -0.8272  0.3661  0.9376
 6772SOL     MW26278   4.166   0.993   4.276 -0.2146  0.5685  0.3347
 6773SOL     OW26279   2.867   5.170   3.882  0.3630  0.1184  0.4986
 6773SOL    HW126280   2.861   5.189   3.976  1.0405  0.3673  0.4938
 6773SOL    HW226281   2.791   5.213   3.844  0.0603 -0.0213  0.9410
 6773SOL     MW26282   2.857   5.178   3.889  0.4110  0.1321  0.5546
 6774SOL     OW26283   3.782   1.914   0.005 -0.1631  1.0731  0.1741
 6774SOL    HW126284   3.858   1.857   0.016  0.3869  1.5844 -0.8314
 6774SOL    HW226285   3.755   1.936   0.094  1.2642  1.3765  0.5530
 6774SOL     MW26286   3.788   1.910   0.018  0.0899  1.1774  0.0939
 6775SOL     OW26287   4.886   2.896   2.481  0.6089  0.0989  0.0625
 6775SOL    HW126288   4.905   2.826   2.544 -1.7004 -1.3222 -0.7564
 6775SOL    HW226289   4.890   2.854   2.396 -0.7337  0.9790 -0.4538
 6775SOL     MW26290   4.889   2.882   2.478  0.1416  0.0298 -0.1085
 6776SOL     OW26291   5.970   5.898   5.322 -0.9510  0.4270  0.1144
 6776SOL    HW126292   5.893   5.943   5.358 -1.1361  0.3068 -0.1277
 6776SOL    HW226293   6.007   5.960   5.260 -1.3187  0.1755 -0.3625
 6776SOL     MW26294   5.965   5.912   5.319 -1.0217  0.3791  0.0224
 6777SOL     OW26295   5.614   4.516   4.161  0.6570  0.2183 -0.6082
 6777SOL    HW126296   5.610   4.612   4.158  2.7492  0.3470  0.1428
 6777SOL    HW226297   5.556   4.487   4.091 -0.9424  2.0131 -0.0605
 6777SOL     MW26298   5.606   4.525   4.152  0.7195  0.4644 -0.4416
 6778SOL     OW26299   0.545   0.604   0.720  0.5767 -0.1093  0.3559
 6778SOL    HW126300   0.611   0.674   0.723  0.7482 -0.1032 -1.9746
 6778SOL    HW226301   0.556   0.566   0.632 -0.5153 -2.0847  1.0536
 6778SOL     MW26302   0.555   0.608   0.709  0.4590 -0.3613  0.1469
 6779SOL     OW26303   3.905   1.186   0.277 -0.1045  0.4400  0.1296
 6779SOL    HW126304   3.917   1.205   0.370  1.2978 -3.4960  0.8139
 6779SOL    HW226305   3.915   1.091   0.270 -3.7293  0.2069 -3.5202
 6779SOL     MW26306   3.908   1.177   0.288 -0.3889 -0.0938 -0.2500
 6780SOL     OW26307   2.221   4.148   4.524  0.3434  0.7218 -0.2411
 6780SOL    HW126308   2.153   4.204   4.561 -0.9315 -1.1464  0.3428
 6780SOL    HW226309   2.290   4.208   4.496 -0.3897  2.4676  1.5869
 6780SOL     MW26310   2.221   4.163   4.525  0.0868  0.7062  0.0672
 6781SOL     OW26311   5.355   3.552   1.199  0.2934 -0.1760 -0.1107
 6781SOL    HW126312   5.419   3.623   1.196 -0.6158  0.5996 -4.8092
 6781SOL    HW226313   5.280   3.584   1.149 -0.9790 -3.6454 -0.6104
 6781SOL     MW26314   5.353   3.565   1.192  0.0143 -0.5207 -0.7762
 6782SOL     OW26315   5.084   4.131   2.844  0.2584  0.1859 -0.2890
 6782SOL    HW126316   5.045   4.135   2.756  0.2043 -2.2710 -0.4083
 6782SOL    HW226317   5.178   4.124   2.828  0.1017 -2.8860 -0.3019
 6782SOL     MW26318   5.091   4.130   2.830  0.2313 -0.5221 -0.3059
 6783SOL     OW26319   0.615   2.812   0.896 -0.0822  0.1342 -0.2405
 6783SOL    HW126320   0.521   2.832   0.898 -0.5433 -1.6288 -2.6453
 6783SOL    HW226321   0.623   2.729   0.942  0.4200  0.6124  0.5547
 6783SOL     MW26322   0.604   2.804   0.902 -0.0770 -0.0300 -0.4464
 6784SOL     OW26323   2.114   3.102   3.700  0.1282 -0.8935  0.7189
 6784SOL    HW126324   2.052   3.120   3.629 -0.9634  0.6952  2.0579
 6784SOL    HW226325   2.073   3.030   3.749 -1.3634  1.0709  2.4118
 6784SOL     MW26326   2.101   3.095   3.697 -0.2024 -0.4385  1.1070
 6785SOL     OW26327   0.376   0.395   2.619 -0.8549 -0.0561 -0.5736
 6785SOL    HW126328   0.403   0.456   2.551 -2.3002  2.5606  1.0900
 6785SOL    HW226329   0.454   0.381   2.672 -0.0998 -0.9867 -1.8945
 6785SOL     MW26330   0.389   0.401   2.617 -0.9432  0.1597 -0.5295
 6786SOL     OW26331   2.842   0.510   0.708 -0.0834 -0.1321 -0.6296
 6786SOL    HW126332   2.931   0.481   0.689  0.5353  0.9244  0.5803
 6786SOL    HW226333   2.809   0.447   0.772  0.1658  0.0615 -0.3078
 6786SOL     MW26334   2.849   0.498   0.713  0.0274  0.0280 -0.4335
 6787SOL     OW26335   0.562   1.308   4.658 -0.6637 -0.3996  0.3256
 6787SOL    HW126336   0.598   1.311   4.569 -0.5405  0.1863  0.3964
 6787SOL    HW226337   0.638   1.305   4.715 -0.7423 -0.5784  0.4241
 6787SOL     MW26338   0.576   1.308   4.654 -0.6580 -0.3475  0.3471
 6788SOL     OW26339   0.226   1.072   4.202  0.3868  0.2141  0.0480
 6788SOL    HW126340   0.307   1.051   4.248  1.1801  1.0737 -0.9555
 6788SOL    HW226341   0.250   1.076   4.110 -1.0821 -0.9078 -0.4069
 6788SOL     MW26342   0.239   1.070   4.196  0.3003  0.1805 -0.1383
 6789SOL     OW26343   0.269   0.117   1.774  0.0013 -0.3126  0.2917
 6789SOL    HW126344   0.227   0.182   1.831  2.3734  1.9969 -0.4582
 6789SOL    HW226345   0.322   0.064   1.834  2.3001  1.9538  0.3674
 6789SOL     MW26346   0.271   0.119   1.789  0.5992  0.2731  0.2054
 6790SOL     OW26347   5.914   0.173   1.127 -0.2481  0.7028 -0.5839
 6790SOL    HW126348   5.901   0.104   1.062  1.0552 -1.1236  1.0673
 6790SOL    HW226349   6.000   0.156   1.165  0.4698  3.6978 -0.6742
 6790SOL     MW26350   5.923   0.162   1.123  0.0110  0.8524 -0.3842
 6791SOL     OW26351   4.479   5.714   1.269 -0.4558 -0.4103 -0.1226
 6791SOL    HW126352   4.532   5.702   1.191 -1.2662 -0.7760 -0.6210
 6791SOL    HW226353   4.388   5.711   1.238 -0.7794 -0.0125  0.7453
 6791SOL     MW26354   4.474   5.712   1.255 -0.6013 -0.4063 -0.0752
 6792SOL     OW26355   0.271   3.282   5.011  0.6385 -0.2301  0.1349
 6792SOL    HW126356   0.282   3.296   5.105  0.1749 -0.2355  0.1877
 6792SOL    HW226357   0.178   3.265   4.999  0.6151  0.2559 -0.3933
 6792SOL     MW26358   0.261   3.282   5.021  0.5762 -0.1686  0.0739
 6793SOL     OW26359   4.981   1.209   3.246  0.0363  0.2673 -0.1842
 6793SOL    HW126360   5.031   1.290   3.243  0.4615 -0.0250 -1.1171
 6793SOL    HW226361   4.891   1.237   3.259  0.2710  0.8583  0.1784
 6793SOL     MW26362   4.976   1.223   3.247  0.1216  0.3057 -0.2573
 6794SOL     OW26363   0.201   3.203   4.688  0.6654  0.4359 -0.0440
 6794SOL    HW126364   0.172   3.142   4.621  0.0228  0.8121 -0.1140
 6794SOL    HW226365   0.155   3.284   4.669 -1.8667 -0.2831  2.5638
 6794SOL     MW26366   0.192   3.205   4.677  0.2590  0.3920  0.2809
 6795SOL     OW26367   2.814   1.404   1.615 -0.3918  0.1009  0.0561
 6795SOL    HW126368   2.779   1.458   1.686 -1.1250 -0.9819  0.5336
 6795SOL    HW226369   2.797   1.456   1.535 -3.4072 -0.5051  0.2348
 6795SOL     MW26370   2.807   1.418   1.614 -0.8717 -0.1153  0.1402
 6796SOL     OW26371   3.495   5.172   5.516  0.6227 -0.5423 -0.1769
 6796SOL    HW126372   3.445   5.125   5.583  0.0539  0.8298  0.3693
 6796SOL    HW226373   3.548   5.104   5.474  0.3554 -1.5564  1.0943
 6796SOL     MW26374   3.495   5.157   5.519  0.5157 -0.4969  0.0558
 6797SOL     OW26375   5.108   0.116   0.246  0.1452 -0.2740 -0.2832
 6797SOL    HW126376   5.126   0.203   0.212  2.2985 -0.2433  0.8792
 6797SOL    HW226377   5.017   0.119   0.275  0.2933  1.6736  0.0107
 6797SOL     MW26378   5.099   0.127   0.245  0.4401 -0.0208 -0.0968
 6798SOL     OW26379   1.431   1.992   1.855 -0.2902  0.6973 -0.1393
 6798SOL    HW126380   1.347   1.962   1.890 -1.3593  0.4956 -2.7092
 6798SOL    HW226381   1.408   2.065   1.798  1.0560 -0.3810 -2.1281
 6798SOL     MW26382   1.417   1.997   1.852 -0.2546  0.5335 -0.7229
 6799SOL     OW26383   3.975   3.222   2.012 -0.4172  0.8948  0.1322
 6799SOL    HW126384   4.011   3.198   1.927 -0.2430  2.1353 -0.1528
 6799SOL    HW226385   4.027   3.173   2.075  0.0025  0.6107 -0.4347
 6799SOL     MW26386   3.986   3.213   2.009 -0.3414  1.0171  0.0234
 6800SOL     OW26387   3.629   0.908   0.182 -0.2125 -0.1586  0.3009
 6800SOL    HW126388   3.653   0.816   0.168 -2.5881 -0.9276  1.0275
 6800SOL    HW226389   3.545   0.918   0.137 -0.8291  1.1847  1.7038
 6800SOL     MW26390   3.621   0.897   0.174 -0.5958 -0.0851  0.5735
 6801SOL     OW26391   3.317   1.491   3.886  0.0223  0.1552  0.3272
 6801SOL    HW126392   3.358   1.469   3.970 -1.2995  0.6982  1.1281
 6801SOL    HW226393   3.335   1.416   3.830  2.0891  0.3748  0.6615
 6801SOL     MW26394   3.324   1.479   3.890  0.1178  0.2528  0.4723
 6802SOL     OW26395   2.338   0.294   0.407 -0.1571  0.2997 -0.1796
 6802SOL    HW126396   2.312   0.283   0.498 -2.0974 -0.1330 -0.7676
 6802SOL    HW226397   2.320   0.386   0.388  0.7321  0.5184  0.0107
 6802SOL     MW26398   2.332   0.304   0.416 -0.2913  0.2723 -0.2305
 6803SOL     OW26399   3.149   0.871   5.041 -0.3266  0.3329  0.4873
 6803SOL    HW126400   3.083   0.820   4.994 -0.4040 -0.5330  1.5130
 6803SOL    HW226401   3.231   0.851   4.997 -0.8286  2.0820 -1.3478
 6803SOL     MW26402   3.151   0.862   5.030 -0.4008  0.4460  0.3839
 6804SOL     OW26403   5.536   5.145   4.302 -0.0967  0.2729  0.2938
 6804SOL    HW126404   5.501   5.059   4.325 -0.3532 -0.4630 -2.7103
 6804SOL    HW226405   5.622   5.147   4.343 -0.1217 -1.3818  0.4663
 6804SOL     MW26406   5.542   5.134   4.310 -0.1326 -0.0334 -0.0687
 6805SOL     OW26407   2.922   1.955   0.994 -0.1483  0.4345 -0.0665
 6805SOL    HW126408   2.890   1.937   1.083 -2.4718  1.4416 -0.6682
 6805SOL    HW226409   2.963   2.041   1.001  1.7078 -0.4682  0.5061
 6805SOL     MW26410   2.923   1.964   1.006 -0.2079  0.4478 -0.0702
 6806SOL     OW26411   2.306   4.863   3.221 -0.1966  0.0201  0.1672
 6806SOL    HW126412   2.330   4.789   3.165  2.2686  1.6762 -1.0054
 6806SOL    HW226413   2.211   4.868   3.213 -0.2888 -2.2787 -0.6617
 6806SOL     MW26414   2.297   4.854   3.213  0.1070 -0.0620 -0.0889
 6807SOL     OW26415   1.982   2.686   0.355 -0.3230 -0.1105 -0.3037
 6807SOL    HW126416   1.978   2.747   0.429  0.6568 -0.4666  0.0519
 6807SOL    HW226417   2.052   2.625   0.378 -0.0773 -0.2867 -1.4828
 6807SOL     MW26418   1.990   2.686   0.368 -0.1662 -0.1783 -0.4091
 6808SOL     OW26419   5.630   4.880   0.162  0.5682 -0.0856  0.1352
 6808SOL    HW126420   5.568   4.846   0.098  2.4170  0.9818 -2.3185
 6808SOL    HW226421   5.615   4.974   0.162  0.8904 -0.0343  0.9445
 6808SOL     MW26422   5.620   4.887   0.154  0.8459  0.0577 -0.0753
 6809SOL     OW26423   4.788   1.898   0.399  0.1583  0.0170  0.6493
 6809SOL    HW126424   4.771   1.990   0.381 -0.9083 -0.2747  0.1834
 6809SOL    HW226425   4.883   1.889   0.389  0.2074  0.9598  0.2383
 6809SOL     MW26426   4.798   1.909   0.396  0.0281  0.1004  0.5370
 6810SOL     OW26427   4.285   2.567   3.745 -0.2557 -0.5950  0.4121
 6810SOL    HW126428   4.266   2.514   3.823 -2.9997 -1.6872 -0.9610
 6810SOL    HW226429   4.316   2.504   3.680  0.0497  0.0307 -0.0520
 6810SOL     MW26430   4.286   2.552   3.747 -0.5679 -0.6549  0.1769
 6811SOL     OW26431   4.827   3.500   0.402  0.5827  0.4497  0.3854
 6811SOL    HW126432   4.866   3.584   0.380  2.3254 -0.5726 -0.5306
 6811SOL    HW226433   4.754   3.522   0.461  2.0027  2.4641  1.4480
 6811SOL     MW26434   4.823   3.513   0.407  0.9875  0.5767  0.4041
 6812SOL     OW26435   0.866   3.640   2.281  0.2106 -0.3100 -1.1886
 6812SOL    HW126436   0.907   3.699   2.218 -0.2662 -0.5445 -1.7153
 6812SOL    HW226437   0.878   3.553   2.244  1.6102 -0.6307 -0.0254
 6812SOL     MW26438   0.873   3.637   2.268  0.3287 -0.3810 -1.1072
 6813SOL     OW26439   5.849   5.304   2.929  0.1215  0.0852 -0.0806
 6813SOL    HW126440   5.872   5.371   2.865  0.7047  0.2038  0.2448
 6813SOL    HW226441   5.866   5.345   3.014 -0.5042 -0.1235  0.1452
 6813SOL     MW26442   5.854   5.317   2.932  0.1159  0.0734 -0.0103
 6814SOL     OW26443   0.780   0.412   5.240 -0.2226 -0.0172  0.1052
 6814SOL    HW126444   0.819   0.493   5.209 -3.4035  1.2331 -0.7958
 6814SOL    HW226445   0.799   0.410   5.334  0.0012  1.7157  0.0992
 6814SOL     MW26446   0.787   0.422   5.248 -0.6011  0.3647 -0.0105
 6815SOL     OW26447   3.003   5.615   4.979 -0.8844  0.1954 -0.6516
 6815SOL    HW126448   2.922   5.649   5.017 -1.6451  0.7280 -2.6462
 6815SOL    HW226449   2.997   5.640   4.886  1.6835  0.4770 -0.7698
 6815SOL     MW26450   2.992   5.623   4.972 -0.6530  0.2995 -0.9217
 6816SOL     OW26451   0.763   4.149   0.097 -0.1420 -0.0469 -0.0381
 6816SOL    HW126452   0.760   4.065   0.141  0.8163  0.0603  0.2326
 6816SOL    HW226453   0.785   4.129   0.006  4.2144  0.1706  0.8529
 6816SOL     MW26454   0.765   4.136   0.091  0.5383 -0.0052  0.1106
 6817SOL     OW26455   4.122   3.788   3.854  0.1277  0.2417 -0.2118
 6817SOL    HW126456   4.203   3.753   3.891 -0.1741  0.4777  0.6874
 6817SOL    HW226457   4.148   3.872   3.815  0.1710  0.7006  0.7825
 6817SOL     MW26458   4.136   3.795   3.854  0.0949  0.3309  0.0308
 6818SOL     OW26459   1.766   5.106   3.958  0.7716 -0.1322 -0.4394
 6818SOL    HW126460   1.828   5.035   3.977  0.0537 -0.5168  0.5151
 6818SOL    HW226461   1.798   5.145   3.877  2.2672 -0.3289  0.0359
 6818SOL     MW26462   1.778   5.102   3.950  0.8712 -0.2060 -0.2565
 6819SOL     OW26463   1.269   3.196   0.537  0.5634 -0.4366  0.4464
 6819SOL    HW126464   1.331   3.171   0.605 -3.0545 -3.4581  2.8738
 6819SOL    HW226465   1.194   3.232   0.585 -0.4789  1.0473 -2.1920
 6819SOL     MW26466   1.267   3.197   0.552 -0.0331 -0.6335  0.4194
 6820SOL     OW26467   2.389   3.624   0.862  0.0392 -0.4663 -0.0737
 6820SOL    HW126468   2.439   3.546   0.840  0.8003  0.3407 -1.3474
 6820SOL    HW226469   2.447   3.697   0.837 -1.3579  0.4862 -0.6460
 6820SOL     MW26470   2.402   3.624   0.856 -0.0422 -0.2410 -0.3101
 6821SOL     OW26471   0.434   3.862   1.980 -0.4392  0.4834 -0.1990
 6821SOL    HW126472   0.376   3.810   2.036 -1.3725  2.2629  0.5342
 6821SOL    HW226473   0.495   3.903   2.041 -0.2477  0.9215 -0.6822
 6821SOL     MW26474   0.435   3.861   1.995 -0.5341  0.7675 -0.1671
 6822SOL     OW26475   0.595   1.722   1.908 -0.0702  0.0151 -0.2631
 6822SOL    HW126476   0.662   1.763   1.854 -0.0876  0.1585 -0.1761
 6822SOL    HW226477   0.541   1.673   1.846  0.2961 -0.3474 -0.2948
 6822SOL     MW26478   0.597   1.721   1.893 -0.0256 -0.0130 -0.2562
 6823SOL     OW26479   4.811   5.890   3.385  0.8217  0.6694  0.1536
 6823SOL    HW126480   4.868   5.924   3.453 -0.7527  3.6914  0.0186
 6823SOL    HW226481   4.749   5.834   3.431  1.6533  0.2139  0.7459
 6823SOL     MW26482   4.811   5.887   3.399  0.7262  0.9985  0.2120
 6824SOL     OW26483   0.737   2.312   2.556  0.3587 -0.3673  0.2554
 6824SOL    HW126484   0.654   2.277   2.590  0.1933 -1.1707 -0.9323
 6824SOL    HW226485   0.735   2.291   2.462  2.7517 -2.1086  0.5483
 6824SOL     MW26486   0.726   2.305   2.548  0.6438 -0.6933  0.1409
 6825SOL     OW26487   1.444   0.337   2.102  0.4448  0.0288  0.8004
 6825SOL    HW126488   1.477   0.409   2.156 -0.6558  0.0021  1.5289
 6825SOL    HW226489   1.522   0.289   2.075  1.2808  2.0398 -0.4871
 6825SOL     MW26490   1.458   0.340   2.105  0.4110  0.2828  0.7291
 6826SOL     OW26491   2.753   1.145   2.747 -0.5954  0.7614  0.2198
 6826SOL    HW126492   2.845   1.118   2.746 -0.0690  2.5293 -0.2671
 6826SOL    HW226493   2.704   1.065   2.727  0.7704 -0.3948  1.3716
 6826SOL     MW26494   2.758   1.131   2.744 -0.3531  0.8397  0.3052
 6827SOL     OW26495   5.064   1.582   2.814 -0.0857 -0.1149  0.0057
 6827SOL    HW126496   4.983   1.608   2.770  0.0062 -0.0435 -0.1203
 6827SOL    HW226497   5.042   1.582   2.907  0.4676  2.4202  0.1643
 6827SOL     MW26498   5.051   1.585   2.821 -0.0024  0.2186  0.0098
 6828SOL     OW26499   5.531   0.229   3.574 -0.5799  0.0121 -0.0826
 6828SOL    HW126500   5.497   0.164   3.513  0.3672  0.8125 -1.5050
 6828SOL    HW226501   5.467   0.300   3.571 -0.9669 -0.3063  0.5129
 6828SOL     MW26502   5.518   0.230   3.566 -0.5078  0.0738 -0.1884
 6829SOL     OW26503   0.123   4.209   3.498  0.1851 -0.0343 -0.6404
 6829SOL    HW126504   0.037   4.221   3.458  0.4131  2.8396 -0.3546
 6829SOL    HW226505   0.171   4.156   3.435 -0.5062  1.7238 -2.6960
 6829SOL     MW26506   0.118   4.204   3.485  0.1258  0.5589 -0.8671
 6830SOL     OW26507   2.611   4.883   3.361 -0.2450 -1.1085  0.2533
 6830SOL    HW126508   2.655   4.800   3.379 -0.5522 -1.1989  0.5962
 6830SOL    HW226509   2.606   4.888   3.266  0.7719 -0.9621  0.2014
 6830SOL     MW26510   2.616   4.873   3.352 -0.1540 -1.1010  0.2904
 6831SOL     OW26511   1.588   1.642   1.010 -0.8093  0.2442 -0.1041
 6831SOL    HW126512   1.533   1.681   0.943 -1.4070  0.2150  0.3690
 6831SOL    HW226513   1.557   1.552   1.018 -1.3783  0.5224  0.8945
 6831SOL     MW26514   1.577   1.635   1.003 -0.9588  0.2760  0.0843
 6832SOL     OW26515   1.160   4.949   1.991 -0.2220 -0.0279  0.5144
 6832SOL    HW126516   1.246   4.988   2.008 -0.1135 -0.4933  1.0672
 6832SOL    HW226517   1.169   4.905   1.906  0.2395 -0.4947  0.7995
 6832SOL     MW26518   1.172   4.948   1.982 -0.1491 -0.1473  0.6216
 6833SOL     OW26519   0.932   1.257   2.235  0.2115  0.1222 -0.2899
 6833SOL    HW126520   0.956   1.296   2.151 -4.0216  2.8021 -0.4504
 6833SOL    HW226521   0.906   1.332   2.289 -0.3619 -1.8362  2.2507
 6833SOL     MW26522   0.932   1.272   2.231 -0.4038  0.2146  0.0145
 6834SOL     OW26523   5.356   2.229   4.847 -0.4251 -0.3207  0.3346
 6834SOL    HW126524   5.288   2.207   4.911  0.3242 -1.8203  0.6435
 6834SOL    HW226525   5.355   2.325   4.843 -2.6085 -0.3103  0.2526
 6834SOL     MW26526   5.347   2.239   4.855 -0.6084 -0.5112  0.3638
 6835SOL     OW26527   2.885   3.005   3.778 -0.3960  0.1311 -0.1306
 6835SOL    HW126528   2.840   2.932   3.820 -1.0499  1.6341  1.8906
 6835SOL    HW226529   2.836   3.020   3.698  0.0641 -1.9502 -0.8322
 6835SOL     MW26530   2.873   2.998   3.773 -0.4208  0.0570  0.0384
 6836SOL     OW26531   0.842   5.058   3.986  0.2560 -0.5503 -0.2230
 6836SOL    HW126532   0.759   5.071   4.032  1.9577  2.3610  2.3268
 6836SOL    HW226533   0.869   5.147   3.962  2.3703 -1.4902 -1.4291
 6836SOL     MW26534   0.835   5.071   3.989  0.7445 -0.2980 -0.0510
 6837SOL     OW26535   3.711   5.184   2.996 -0.0809 -0.5461  0.4914
 6837SOL    HW126536   3.745   5.240   2.926 -0.4752 -0.3249  0.4697
 6837SOL    HW226537   3.719   5.237   3.076 -1.3532 -0.0697  0.3237
 6837SOL     MW26538   3.716   5.198   2.997 -0.2942 -0.4573  0.4671
 6838SOL     OW26539   3.376   1.531   2.259 -0.7184  0.7633 -0.4586
 6838SOL    HW126540   3.333   1.599   2.311 -0.0487  0.2083  0.8621
 6838SOL    HW226541   3.469   1.547   2.270 -0.5532 -0.3762 -0.1064
 6838SOL     MW26542   3.382   1.542   2.267 -0.6115  0.5465 -0.2444
 6839SOL     OW26543   4.172   0.253   1.260  0.0086 -0.1562 -0.1450
 6839SOL    HW126544   4.120   0.204   1.324  0.4910  1.8324  1.8481
 6839SOL    HW226545   4.255   0.269   1.305  0.3151  1.3911 -1.2374
 6839SOL     MW26546   4.176   0.249   1.274  0.1092  0.2964 -0.0297
 6840SOL     OW26547   0.915   5.571   4.623  0.2949 -0.1300  0.2753
 6840SOL    HW126548   0.880   5.484   4.644  1.8300 -0.9736 -0.5893
 6840SOL    HW226549   1.010   5.559   4.623  0.4975  1.3826 -0.5316
 6840SOL     MW26550   0.923   5.558   4.625  0.5174 -0.0448  0.0610
 6841SOL     OW26551   0.255   1.408   4.080 -0.1318 -1.0234  0.2811
 6841SOL    HW126552   0.247   1.476   4.014  0.1180 -0.3815  0.9102
 6841SOL    HW226553   0.344   1.418   4.115 -1.0077  0.0732  2.2705
 6841SOL     MW26554   0.265   1.418   4.076 -0.2119 -0.8008  0.6161
 6842SOL     OW26555   5.529   2.570   1.971  0.3555  0.8470 -0.5802
 6842SOL    HW126556   5.472   2.494   1.985  0.7862  0.7442  0.6810
 6842SOL    HW226557   5.578   2.549   1.892 -0.1691  0.2053 -0.7411
 6842SOL     MW26558   5.528   2.558   1.963  0.3433  0.7520 -0.4394
 6843SOL     OW26559   2.067   2.291   5.018  0.1675 -0.1303 -0.1758
 6843SOL    HW126560   2.116   2.272   5.098 -0.6523  0.8488  0.5787
 6843SOL    HW226561   2.046   2.384   5.025 -2.5807 -0.7017 -0.0057
 6843SOL     MW26562   2.070   2.300   5.029 -0.2892 -0.0777 -0.0577
 6844SOL     OW26563   3.283   1.896   3.020 -0.0022  0.4627 -0.5915
 6844SOL    HW126564   3.374   1.908   2.995  0.1933  0.9000  0.2870
 6844SOL    HW226565   3.266   1.966   3.084 -0.5695 -0.3835  0.2087
 6844SOL     MW26566   3.292   1.907   3.025 -0.0501  0.4104 -0.3769
 6845SOL     OW26567   2.330   1.435   0.191  0.1485 -0.2574 -0.2782
 6845SOL    HW126568   2.237   1.420   0.212  0.2480  0.4721  0.7439
 6845SOL    HW226569   2.370   1.458   0.275  0.8470  1.3730 -1.0275
 6845SOL     MW26570   2.323   1.436   0.204  0.2508  0.0446 -0.2433
 6846SOL     OW26571   5.314   0.220   1.945 -0.3990  0.2560 -0.0898
 6846SOL    HW126572   5.396   0.192   1.985 -0.3852  0.5063  0.0595
 6846SOL    HW226573   5.246   0.188   2.005 -0.3353  1.4683  0.6393
 6846SOL     MW26574   5.315   0.212   1.958 -0.3896  0.4432  0.0225
 6847SOL     OW26575   2.940   4.548   4.909  0.8538  0.1595  0.3711
 6847SOL    HW126576   2.848   4.541   4.885  0.3780  0.1445  2.1065
 6847SOL    HW226577   2.949   4.636   4.945  1.2330 -0.2805  1.3684
 6847SOL     MW26578   2.929   4.558   4.911  0.8414  0.1011  0.7210
 6848SOL     OW26579   1.237   3.156   2.144  0.0102  0.2539 -0.7953
 6848SOL    HW126580   1.271   3.072   2.175 -0.6016  0.2997  0.0118
 6848SOL    HW226581   1.142   3.142   2.139  0.0583  0.3954 -2.1893
 6848SOL     MW26582   1.229   3.143   2.147 -0.0620  0.2778 -0.8705
 6849SOL     OW26583   2.277   4.032   2.396 -0.0537 -0.9383 -0.1997
 6849SOL    HW126584   2.274   3.941   2.368  2.6797 -1.0397 -0.2902
 6849SOL    HW226585   2.199   4.043   2.449 -0.4478 -3.3137 -0.2277
 6849SOL     MW26586   2.267   4.022   2.399  0.2456 -1.2550 -0.2148
 6850SOL     OW26587   0.433   4.247   2.229  0.5097  0.8276 -0.3803
 6850SOL    HW126588   0.408   4.305   2.301 -0.2355 -0.3393  0.3174
 6850SOL    HW226589   0.367   4.263   2.162  1.2856  2.0202 -0.8925
 6850SOL     MW26590   0.421   4.257   2.229  0.5136  0.8307 -0.3567
 6851SOL     OW26591   0.835   4.443   1.927  0.1318 -0.0994  0.6146
 6851SOL    HW126592   0.871   4.427   1.839  0.5398  0.7876  0.6151
 6851SOL    HW226593   0.826   4.356   1.965  1.1391 -0.4112  0.1526
 6851SOL     MW26594   0.838   4.430   1.920  0.3130 -0.0262  0.5555
 6852SOL     OW26595   4.753   2.931   1.834  0.0465  0.5519  0.5333
 6852SOL    HW126596   4.798   2.846   1.839 -0.5566  0.0384 -1.8941
 6852SOL    HW226597   4.669   2.916   1.877 -0.0275 -0.0761  0.1800
 6852SOL     MW26598   4.748   2.918   1.840 -0.0405  0.4058  0.1773
 6853SOL     OW26599   1.353   2.187   3.732 -0.4662 -0.3685  0.2512
 6853SOL    HW126600   1.432   2.221   3.774 -1.0023  3.2030 -1.3869
 6853SOL    HW226601   1.365   2.207   3.639 -2.1516 -2.2140 -0.3951
 6853SOL     MW26602   1.365   2.194   3.725 -0.7504 -0.1476 -0.0410
 6854SOL     OW26603   3.304   4.628   5.243  0.4194  0.2542 -0.2768
 6854SOL    HW126604   3.358   4.622   5.322 -0.2707 -0.1372  0.1712
 6854SOL    HW226605   3.289   4.722   5.231 -1.2667  0.2245  1.3058
 6854SOL     MW26606   3.309   4.639   5.251  0.1154  0.1998 -0.0162
 6855SOL     OW26607   2.027   4.675   0.901 -0.1439  0.5295  0.4819
 6855SOL    HW126608   2.055   4.674   0.809  0.1204  0.5336  0.5647
 6855SOL    HW226609   2.002   4.585   0.920  1.5760  0.1520  0.9688
 6855SOL     MW26610   2.027   4.663   0.891  0.1101  0.4816  0.5548
 6856SOL     OW26611   1.411   5.145   5.488  0.3202  0.2713  0.2482
 6856SOL    HW126612   1.494   5.162   5.533 -0.6505 -0.2386  2.2611
 6856SOL    HW226613   1.395   5.224   5.437  2.5531 -0.0265 -0.9717
 6856SOL     MW26614   1.420   5.157   5.487  0.4818  0.1678  0.3500
 6857SOL     OW26615   2.335   3.617   1.129 -0.0975  0.5005 -0.0625
 6857SOL    HW126616   2.251   3.572   1.137 -0.2794  0.7554 -0.5026
 6857SOL    HW226617   2.359   3.607   1.037  0.0704  0.9315 -0.0683
 6857SOL     MW26618   2.328   3.610   1.118 -0.0994  0.5884 -0.1194
 6858SOL     OW26619   5.212   1.023   5.090 -0.9696  0.1979  0.2117
 6858SOL    HW126620   5.170   1.103   5.057 -1.6278  1.1957  3.2946
 6858SOL    HW226621   5.144   0.956   5.084 -0.8844  0.2054 -0.9913
 6858SOL     MW26622   5.198   1.025   5.085 -1.0428  0.3268  0.4525
 6859SOL     OW26623   4.330   0.577   1.236 -0.1935  0.0616 -0.3219
 6859SOL    HW126624   4.234   0.574   1.236 -0.1899 -0.0490 -0.1740
 6859SOL    HW226625   4.356   0.505   1.293 -0.0004 -0.4669 -1.0701
 6859SOL     MW26626   4.321   0.568   1.243 -0.1683 -0.0202 -0.3986
 6860SOL     OW26627   3.121   4.333   3.906 -0.3110  0.5723 -0.4108
 6860SOL    HW126628   3.207   4.316   3.944  0.3913  2.6365 -1.0330
 6860SOL    HW226629   3.103   4.425   3.926 -3.2150 -0.2970  1.3485
 6860SOL     MW26630   3.129   4.343   3.913 -0.5927  0.7253 -0.2654
 6861SOL     OW26631   1.351   4.763   3.676  0.0239 -0.7703 -0.5460
 6861SOL    HW126632   1.370   4.791   3.586 -0.6952 -1.3464 -0.8858
 6861SOL    HW226633   1.407   4.817   3.731  1.0763 -0.9896 -1.3999
 6861SOL     MW26634   1.360   4.774   3.671  0.0666 -0.8721 -0.6990
 6862SOL     OW26635   5.013   0.650   5.023  0.8105  0.3798 -0.3019
 6862SOL    HW126636   4.964   0.590   5.078  1.5976  1.2575  1.4226
 6862SOL    HW226637   4.976   0.640   4.936 -1.6170  0.1727  0.7301
 6862SOL     MW26638   5.002   0.641   5.019  0.6003  0.4656  0.0510
 6863SOL     OW26639   4.324   1.710   4.517 -0.0322 -0.3537  0.5143
 6863SOL    HW126640   4.242   1.672   4.486 -0.5288  0.3143  1.0017
 6863SOL    HW226641   4.382   1.635   4.531 -0.4215 -0.7903 -0.2384
 6863SOL     MW26642   4.321   1.696   4.515 -0.1454 -0.3241  0.4802
 6864SOL     OW26643   4.365   2.479   1.558 -0.8009 -0.4916 -0.1027
 6864SOL    HW126644   4.295   2.541   1.540 -1.9423 -1.8688 -0.5299
 6864SOL    HW226645   4.362   2.417   1.485  1.0725 -0.3756 -0.2819
 6864SOL     MW26646   4.355   2.479   1.547 -0.7067 -0.6533 -0.1804
 6865SOL     OW26647   4.868   5.933   5.375  0.3360 -0.1511 -0.0087
 6865SOL    HW126648   4.784   5.892   5.396 -0.1980  1.1676  0.5071
 6865SOL    HW226649   4.844   6.008   5.320  1.4477 -1.5855 -2.5054
 6865SOL     MW26650   4.854   5.937   5.371  0.4101 -0.1659 -0.2618
 6866SOL     OW26651   4.536   4.367   5.782  0.1328  0.4952 -0.0032
 6866SOL    HW126652   4.581   4.449   5.762 -0.1221  0.5069 -0.5469
 6866SOL    HW226653   4.560   4.309   5.710 -1.4518  0.7926 -0.7780
 6866SOL     MW26654   4.545   4.370   5.770 -0.1030  0.5341 -0.1721
 6867SOL     OW26655   0.871   3.254   1.886  0.3159 -0.4299 -0.9499
 6867SOL    HW126656   0.937   3.324   1.892  0.5406 -0.6029 -1.3787
 6867SOL    HW226657   0.900   3.201   1.811 -0.3096 -0.5136 -1.1292
 6867SOL     MW26658   0.883   3.256   1.877  0.2645 -0.4625 -1.0277
 6868SOL     OW26659   2.588   4.278   1.373  0.1340  0.1433  0.2918
 6868SOL    HW126660   2.646   4.352   1.390 -0.0780  0.0517  1.4720
 6868SOL    HW226661   2.557   4.251   1.460 -0.0991 -1.0805 -0.1517
 6868SOL     MW26662   2.591   4.284   1.387  0.0770 -0.0248  0.3861
 6869SOL     OW26663   0.603   3.280   5.453 -0.9751  0.3742 -0.2117
 6869SOL    HW126664   0.632   3.189   5.445  0.6167  0.5940  2.3195
 6869SOL    HW226665   0.530   3.287   5.392 -1.5587 -2.7988  0.0145
 6869SOL     MW26666   0.597   3.269   5.444 -0.8461 -0.0038  0.1416
 6870SOL     OW26667   5.948   2.700   5.474 -0.5425  0.2903 -0.5202
 6870SOL    HW126668   5.959   2.783   5.428 -1.6702  1.5936  1.5216
 6870SOL    HW226669   5.922   2.638   5.405 -2.1869  2.1947 -1.6492
 6870SOL     MW26670   5.947   2.702   5.459 -0.8969  0.7010 -0.4034
 6871SOL     OW26671   5.754   0.388   4.736  0.8589 -0.1170  0.3891
 6871SOL    HW126672   5.840   0.392   4.779 -0.1320  1.7466  2.2893
 6871SOL    HW226673   5.771   0.419   4.647  1.9397  1.5486  1.1460
 6871SOL     MW26674   5.767   0.393   4.730  0.8702  0.3348  0.7291
 6872SOL     OW26675   3.391   2.640   2.396  0.6887 -0.2827 -0.2520
 6872SOL    HW126676   3.475   2.635   2.350  0.2331 -2.5722 -0.8755
 6872SOL    HW226677   3.352   2.722   2.365  2.6681  0.7772  0.0212
 6872SOL     MW26678   3.397   2.650   2.386  0.8836 -0.4401 -0.2968
 6873SOL     OW26679   3.682   1.333   2.461 -0.1243 -0.0019  0.7484
 6873SOL    HW126680   3.740   1.402   2.493  1.4472 -1.2732  0.6856
 6873SOL    HW226681   3.671   1.274   2.536 -1.0779  0.0549  0.6579
 6873SOL     MW26682   3.688   1.334   2.475 -0.0451 -0.1575  0.7291
 6874SOL     OW26683   5.069   5.368   4.888  0.3017 -0.1836 -0.0991
 6874SOL    HW126684   5.051   5.373   4.982  1.6991 -2.1064  0.3163
 6874SOL    HW226685   5.136   5.300   4.880  0.8822  0.6017 -2.4054
 6874SOL     MW26686   5.075   5.360   4.899  0.5550 -0.3290 -0.3419
 6875SOL     OW26687   0.885   0.664   5.109  0.1457  0.1901  0.3839
 6875SOL    HW126688   0.975   0.659   5.139  0.2898 -2.4784 -0.4637
 6875SOL    HW226689   0.891   0.683   5.016 -0.2113  1.4210  0.6006
 6875SOL     MW26690   0.897   0.666   5.101  0.1185  0.0061  0.3033
 6876SOL     OW26691   3.042   2.067   4.573  0.5192  0.0440 -0.3136
 6876SOL    HW126692   3.077   1.984   4.541  0.6311 -0.1880  0.4071
 6876SOL    HW226693   2.985   2.043   4.646 -0.3411  0.5082 -0.8119
 6876SOL     MW26694   3.039   2.053   4.578  0.4234  0.0737 -0.2851
 6877SOL     OW26695   5.769   3.828   1.228  0.1273 -0.0311  0.0150
 6877SOL    HW126696   5.826   3.757   1.258  1.2194  1.1713  0.8600
 6877SOL    HW226697   5.746   3.876   1.308  1.1119  1.8023 -0.7717
 6877SOL     MW26698   5.773   3.825   1.242  0.3929  0.3576  0.0225
 6878SOL     OW26699   2.548   5.938   0.705  0.0577  0.6584 -0.2933
 6878SOL    HW126700   2.526   5.966   0.617 -2.4993 -1.9654 -0.5804
 6878SOL    HW226701   2.482   5.980   0.761 -0.3822 -0.2913 -0.0750
 6878SOL     MW26702   2.536   5.947   0.701 -0.3257  0.2012 -0.3021
 6879SOL     OW26703   3.493   5.496   1.682  0.4063 -0.1684  0.3001
 6879SOL    HW126704   3.556   5.457   1.743  0.1631  0.1757  0.7726
 6879SOL    HW226705   3.526   5.585   1.667  0.2971 -0.1492  0.1748
 6879SOL     MW26706   3.505   5.502   1.688  0.3614 -0.1221  0.3445
 6880SOL     OW26707   5.519   3.510   5.432  0.3538  0.0524  0.0745
 6880SOL    HW126708   5.580   3.497   5.359 -0.8088 -0.3134 -0.8512
 6880SOL    HW226709   5.529   3.430   5.485  2.7690  1.2443  1.5377
 6880SOL     MW26710   5.528   3.498   5.430  0.5140  0.1583  0.1431
 6881SOL     OW26711   0.913   2.047   2.300 -0.0582 -0.3369  0.4208
 6881SOL    HW126712   0.976   2.060   2.229  0.7765  1.0176  1.3751
 6881SOL    HW226713   0.957   2.084   2.378 -1.2754 -1.0642  1.4663
 6881SOL     MW26714   0.927   2.054   2.301 -0.1071 -0.2568  0.6769
 6882SOL     OW26715   5.711   5.340   1.875 -0.7837  0.3846  0.0346
 6882SOL    HW126716   5.711   5.375   1.964  0.2493  0.6671 -0.0649
 6882SOL    HW226717   5.695   5.246   1.885  0.7906  0.1655  0.6388
 6882SOL     MW26718   5.709   5.333   1.887 -0.4497  0.3924  0.0993
 6883SOL     OW26719   4.146   4.575   3.784  0.2092  0.3547 -0.1051
 6883SOL    HW126720   4.164   4.511   3.716  1.9591 -1.7952  2.3191
 6883SOL    HW226721   4.209   4.646   3.768  0.3766  0.0279 -0.8987
 6883SOL     MW26722   4.156   4.576   3.773  0.4544  0.0381  0.1037
 6884SOL     OW26723   2.925   5.100   1.710  0.2349  0.0769  0.0016
 6884SOL    HW126724   2.879   5.021   1.740  0.1713  0.1705  0.1481
 6884SOL    HW226725   2.938   5.086   1.616 -1.5188  0.7715 -0.3575
 6884SOL     MW26726   2.921   5.088   1.702  0.0026  0.1779 -0.0256
 6885SOL     OW26727   4.037   4.645   2.194 -0.6427  0.3730 -0.4036
 6885SOL    HW126728   3.992   4.665   2.276 -0.2268  1.6346 -0.4660
 6885SOL    HW226729   3.968   4.609   2.138 -1.1865  0.5718  0.1197
 6885SOL     MW26730   4.022   4.643   2.197 -0.6590  0.5603 -0.3448
 6886SOL     OW26731   5.646   1.754   3.603  0.1287 -0.4190 -0.0761
 6886SOL    HW126732   5.705   1.694   3.556 -1.0404 -2.2321  0.7244
 6886SOL    HW226733   5.561   1.710   3.601 -0.7298  1.2012  0.5860
 6886SOL     MW26734   5.643   1.741   3.597 -0.1311 -0.4436  0.1111
 6887SOL     OW26735   3.870   4.788   3.951 -0.1111  0.5513 -0.5907
 6887SOL    HW126736   3.863   4.884   3.946  0.6140  0.5603 -1.5724
 6887SOL    HW226737   3.936   4.773   4.018 -1.9409  0.6693  1.2956
 6887SOL     MW26738   3.877   4.799   3.959 -0.2527  0.5679 -0.4747
 6888SOL     OW26739   5.175   2.311   1.649 -0.1137 -0.2374  0.2251
 6888SOL    HW126740   5.263   2.324   1.684 -0.3077 -0.7449  0.8991
 6888SOL    HW226741   5.175   2.221   1.616  0.0500  0.2156 -1.0433
 6888SOL     MW26742   5.186   2.301   1.649 -0.1178 -0.2446  0.1490
 6889SOL     OW26743   5.079   4.709   1.339 -0.1338 -0.1503  0.0672
 6889SOL    HW126744   5.098   4.802   1.348  3.0029 -0.6557 -0.9293
 6889SOL    HW226745   5.082   4.692   1.245  0.2433 -1.4283  0.2893
 6889SOL     MW26746   5.081   4.718   1.328  0.3161 -0.3786 -0.0318
 6890SOL     OW26747   4.142   2.225   0.374 -0.5219  0.9330  0.1738
 6890SOL    HW126748   4.105   2.312   0.388  0.7076  1.6340 -0.8157
 6890SOL    HW226749   4.211   2.217   0.440 -0.8430  0.5774  0.4695
 6890SOL     MW26750   4.146   2.235   0.384 -0.4053  0.9770  0.0850
 6891SOL     OW26751   1.951   4.833   3.922  0.9681 -0.1254 -0.3762
 6891SOL    HW126752   1.946   4.802   3.832 -0.9830 -0.7546 -0.0827
 6891SOL    HW226753   2.034   4.798   3.955  0.2147 -2.5638 -0.9683
 6891SOL     MW26754   1.961   4.824   3.915  0.6219 -0.5178 -0.4144
 6892SOL     OW26755   5.528   0.214   4.784  0.4005  0.0640 -0.1035
 6892SOL    HW126756   5.450   0.268   4.796 -0.8432 -0.8532 -3.4749
 6892SOL    HW226757   5.590   0.272   4.739  0.9327  0.1713  0.7569
 6892SOL     MW26758   5.526   0.229   4.780  0.3095 -0.0397 -0.4249
 6893SOL     OW26759   5.241   0.923   3.918  0.1818  0.2749  0.1347
 6893SOL    HW126760   5.271   1.009   3.946 -2.8726  1.6382 -0.5977
 6893SOL    HW226761   5.232   0.930   3.823 -2.5674 -0.0014  0.3446
 6893SOL     MW26762   5.244   0.935   3.909 -0.5612  0.4141  0.0679
 6894SOL     OW26763   2.807   1.591   3.695 -0.1504 -0.2263 -0.4019
 6894SOL    HW126764   2.737   1.539   3.734  0.2576 -1.2611 -1.0230
 6894SOL    HW226765   2.763   1.651   3.636 -0.6425  0.2273  0.4233
 6894SOL     MW26766   2.793   1.592   3.693 -0.1612 -0.3006 -0.3757
 6895SOL     OW26767   5.108   4.576   3.651 -0.3963 -0.0800 -0.4481
 6895SOL    HW126768   5.045   4.648   3.652  0.7898  0.9563  0.2608
 6895SOL    HW226769   5.170   4.599   3.582  0.4900  0.0194  0.3761
 6895SOL     MW26770   5.108   4.588   3.642 -0.1307  0.0653 -0.2520
 6896SOL     OW26771   3.151   2.452   3.331  0.5746 -0.0873 -0.7849
 6896SOL    HW126772   3.093   2.449   3.407 -0.3066  0.7983 -1.4008
 6896SOL    HW226773   3.152   2.362   3.298 -0.6884 -0.0515 -0.9362
 6896SOL     MW26774   3.144   2.440   3.336  0.3002  0.0303 -0.8831
 6897SOL     OW26775   4.165   4.732   0.125  0.1309  0.1023 -0.0893
 6897SOL    HW126776   4.075   4.701   0.127 -0.1913  1.0124 -0.3377
 6897SOL    HW226777   4.215   4.659   0.088 -0.6448 -0.0443 -0.8380
 6897SOL     MW26778   4.160   4.719   0.121 -0.0091  0.1993 -0.2169
 6898SOL     OW26779   4.957   3.980   1.735 -0.0790 -0.2762 -0.8008
 6898SOL    HW126780   4.991   4.066   1.710 -0.4096 -0.0544 -0.4905
 6898SOL    HW226781   4.883   4.000   1.793  0.6177 -0.7842  0.2774
 6898SOL     MW26782   4.952   3.994   1.739 -0.0319 -0.3128 -0.6230
 6899SOL     OW26783   1.174   1.693   1.123 -0.6521  0.1765  0.7243
 6899SOL    HW126784   1.214   1.755   1.185  0.0620  0.3474  0.1008
 6899SOL    HW226785   1.168   1.611   1.172  0.2805  0.2004  0.8930
 6899SOL     MW26786   1.178   1.691   1.137 -0.4413  0.2015  0.6661
 6900SOL     OW26787   0.033   5.707   1.084  0.1908 -0.8731 -0.0084
 6900SOL    HW126788  -0.036   5.742   1.028  2.0529  0.4509 -1.5320
 6900SOL    HW226789   0.010   5.615   1.096 -1.9291 -0.4026 -0.3168
 6900SOL     MW26790   0.021   5.700   1.078  0.1578 -0.6437 -0.2429
 6901SOL     OW26791   4.518   5.008   5.332 -0.0354  0.7056 -0.2637
 6901SOL    HW126792   4.467   5.059   5.394 -0.7163  1.0386 -1.0810
 6901SOL    HW226793   4.605   5.001   5.371  0.1424  2.7416 -0.2668
 6901SOL     MW26794   4.523   5.014   5.345 -0.0997  1.0090 -0.3691
 6902SOL     OW26795   2.088   5.260   1.793 -0.4725 -0.3422 -0.3805
 6902SOL    HW126796   2.144   5.318   1.845 -2.1632  0.6339  0.3889
 6902SOL    HW226797   2.121   5.269   1.704 -1.5305  2.8908 -0.5139
 6902SOL     MW26798   2.100   5.269   1.788 -0.8245  0.1969 -0.2990
 6903SOL     OW26799   5.341   4.129   2.801  0.7443  1.1442 -0.3805
 6903SOL    HW126800   5.395   4.169   2.868 -1.2538 -1.4843  2.9583
 6903SOL    HW226801   5.378   4.042   2.788 -0.7676  0.4926 -0.4090
 6903SOL     MW26802   5.352   4.123   2.808  0.2947  0.7243  0.0434
 6904SOL     OW26803   4.223   1.247   5.322 -0.2307 -0.1598 -0.0342
 6904SOL    HW126804   4.139   1.202   5.330  0.8569 -2.9286 -3.2186
 6904SOL    HW226805   4.288   1.179   5.336  1.5200  1.6081  0.6163
 6904SOL     MW26806   4.220   1.233   5.325  0.1326 -0.2879 -0.3581
 6905SOL     OW26807   1.895   0.027   1.740 -0.7839  0.2307  0.3027
 6905SOL    HW126808   1.874   0.100   1.799  1.9452  0.7878  0.6389
 6905SOL    HW226809   1.985   0.044   1.713 -0.1229 -3.0007  0.3459
 6905SOL     MW26810   1.904   0.039   1.744 -0.3501 -0.1117  0.3512
 6906SOL     OW26811   1.603   3.312   2.592 -0.5464 -0.8823  0.0817
 6906SOL    HW126812   1.608   3.344   2.502  0.2946  0.7298  0.6953
 6906SOL    HW226813   1.685   3.266   2.607  0.0435  0.3103  0.5666
 6906SOL     MW26814   1.614   3.310   2.583 -0.3631 -0.5236  0.2222
 6907SOL     OW26815   0.723   3.101   3.818  0.6478  0.3745 -0.0025
 6907SOL    HW126816   0.638   3.070   3.849  0.6922  1.4317  1.2324
 6907SOL    HW226817   0.726   3.074   3.727 -2.1847  2.6286 -0.8595
 6907SOL     MW26818   0.712   3.094   3.811  0.2909  0.7982  0.0458
 6908SOL     OW26819   4.871   5.507   0.303  0.1712  0.3262 -0.4593
 6908SOL    HW126820   4.914   5.468   0.379 -1.5046 -1.2030 -0.2585
 6908SOL    HW226821   4.870   5.601   0.321  2.7217  0.3003 -0.1254
 6908SOL     MW26822   4.876   5.514   0.315  0.2832  0.1268 -0.3909
 6909SOL     OW26823   4.835   5.996   2.053 -0.4021 -0.5278 -0.0747
 6909SOL    HW126824   4.797   5.959   2.133 -0.7736 -2.5710 -1.1814
 6909SOL    HW226825   4.760   6.027   2.003 -0.1944  0.3731  0.1496
 6909SOL     MW26826   4.821   5.996   2.057 -0.4239 -0.6742 -0.1879
 6910SOL     OW26827   2.382   1.861   1.094  0.1040  0.1332  0.4415
 6910SOL    HW126828   2.447   1.894   1.032  0.5876 -0.6860  0.4940
 6910SOL    HW226829   2.325   1.935   1.111  0.6487  0.6882 -0.1042
 6910SOL     MW26830   2.383   1.875   1.088  0.2358  0.0993  0.3784
 6911SOL     OW26831   3.582   4.107   4.144  0.5711  0.0904 -0.0036
 6911SOL    HW126832   3.620   4.187   4.181  0.6380  0.5186 -0.9882
 6911SOL    HW226833   3.522   4.138   4.077  1.5112 -0.7170 -1.2364
 6911SOL     MW26834   3.579   4.121   4.140  0.6998  0.0420 -0.2871
 6912SOL     OW26835   0.028   1.352   0.421  0.1008  0.3234  0.8742
 6912SOL    HW126836  -0.026   1.287   0.464 -1.3106  0.9533  0.0880
 6912SOL    HW226837  -0.018   1.435   0.434  0.8160  0.8554  0.1038
 6912SOL     MW26838   0.015   1.354   0.428  0.0116  0.4722  0.6749
 6913SOL     OW26839   1.585   3.831   5.395 -0.1979 -0.9495 -0.2314
 6913SOL    HW126840   1.625   3.793   5.317  2.1305 -0.3955  0.6421
 6913SOL    HW226841   1.625   3.917   5.403 -2.5229  0.1500  0.0036
 6913SOL     MW26842   1.595   3.837   5.386 -0.1974 -0.7379 -0.0892
 6914SOL     OW26843   0.943   2.003   4.688 -0.3246 -0.1126 -0.3181
 6914SOL    HW126844   0.876   1.994   4.756  0.7626  0.2402  0.8269
 6914SOL    HW226845   0.893   2.016   4.607 -1.6480  1.7353  0.7419
 6914SOL     MW26846   0.928   2.004   4.687 -0.3549  0.1690 -0.0358
 6915SOL     OW26847   5.609   2.151   0.153 -0.1960 -0.1758 -0.7405
 6915SOL    HW126848   5.560   2.124   0.075 -1.7025 -0.3295  0.2414
 6915SOL    HW226849   5.648   2.236   0.129 -1.3218  0.1699 -1.3689
 6915SOL     MW26850   5.608   2.158   0.140 -0.5336 -0.1514 -0.6952
 6916SOL     OW26851   0.536   0.295   4.680  0.3582 -0.5389  0.0225
 6916SOL    HW126852   0.544   0.357   4.607  0.6610 -0.4236  0.1511
 6916SOL    HW226853   0.590   0.221   4.655 -1.6118 -1.6492 -1.0464
 6916SOL     MW26854   0.544   0.294   4.667  0.1447 -0.6662 -0.0978
 6917SOL     OW26855   1.381   3.130   1.888  0.1082  0.3455  0.3282
 6917SOL    HW126856   1.351   3.220   1.876  1.4376  0.6604 -0.7577
 6917SOL    HW226857   1.348   3.105   1.975 -3.0243  0.7460 -0.6751
 6917SOL     MW26858   1.373   3.138   1.898 -0.1225  0.4370  0.0607
 6918SOL     OW26859   5.618   2.764   4.022  0.1342  0.0643 -0.0709
 6918SOL    HW126860   5.600   2.682   4.069  1.6048 -0.2906 -0.0848
 6918SOL    HW226861   5.640   2.736   3.934  0.1863  0.5174 -0.1984
 6918SOL     MW26862   5.619   2.750   4.017  0.3290  0.0770 -0.0892
 6919SOL     OW26863   2.093   0.758   4.490  0.1594 -0.0835  0.9177
 6919SOL    HW126864   2.047   0.706   4.425  1.0474 -0.6697  0.7460
 6919SOL    HW226865   2.024   0.805   4.537 -0.4540  1.1660 -1.1234
 6919SOL     MW26866   2.078   0.758   4.487  0.1945  0.0014  0.6347
 6920SOL     OW26867   3.895   5.078   3.646 -0.2307 -0.2559  0.2883
 6920SOL    HW126868   3.912   4.984   3.637  2.0011  0.2868 -1.7120
 6920SOL    HW226869   3.894   5.111   3.557 -0.5330  1.7030  0.9923
 6920SOL     MW26870   3.897   5.071   3.634  0.0162  0.0644  0.1225
 6921SOL     OW26871   1.951   1.990   3.094 -0.3521 -0.2064 -0.2485
 6921SOL    HW126872   2.042   1.999   3.066 -0.8032  0.7599 -1.4591
 6921SOL    HW226873   1.956   1.980   3.189  0.9236  1.5709 -0.1016
 6921SOL     MW26874   1.963   1.990   3.102 -0.2465  0.1448 -0.3846
 6922SOL     OW26875   1.407   4.555   0.483 -0.0038 -0.0168  0.0684
 6922SOL    HW126876   1.322   4.575   0.443 -0.5189  1.7907  2.0354
 6922SOL    HW226877   1.445   4.640   0.505  1.6119 -0.8730  0.6949
 6922SOL     MW26878   1.401   4.568   0.481  0.1371  0.1054  0.4004
 6923SOL     OW26879   3.382   4.408   1.778  0.8376 -0.6120 -0.5753
 6923SOL    HW126880   3.318   4.351   1.820  0.7872 -0.6259 -0.6701
 6923SOL    HW226881   3.347   4.423   1.690 -0.2249  1.2727  0.1334
 6923SOL     MW26882   3.369   4.403   1.772  0.6952 -0.3724 -0.4967
 6924SOL     OW26883   2.278   4.644   5.348 -0.2259 -0.4503  0.3622
 6924SOL    HW126884   2.220   4.615   5.418  1.3693 -0.0368  1.8951
 6924SOL    HW226885   2.364   4.611   5.373 -0.2211 -3.5766 -3.3419
 6924SOL     MW26886   2.282   4.636   5.360 -0.0210 -0.7977  0.0839
 6925SOL     OW26887   1.361   3.150   5.326  0.5077  0.8494  0.2012
 6925SOL    HW126888   1.314   3.185   5.250  0.1917 -0.2404 -0.1212
 6925SOL    HW226889   1.398   3.226   5.369  0.1022  1.5431 -0.6670
 6925SOL     MW26890   1.360   3.164   5.322  0.4154  0.7989  0.0486
 6926SOL     OW26891   0.721   4.263   1.505  0.6445 -0.1554 -0.2478
 6926SOL    HW126892   0.710   4.172   1.532  0.1114 -0.1521 -0.4640
 6926SOL    HW226893   0.731   4.259   1.410 -1.0414  0.1659 -0.4382
 6926SOL     MW26894   0.721   4.251   1.497  0.3604 -0.1140 -0.2998
 6927SOL     OW26895   4.972   3.211   3.719  0.1836  0.5510  0.2702
 6927SOL    HW126896   5.057   3.202   3.675 -0.2211  0.9053 -0.5966
 6927SOL    HW226897   4.990   3.189   3.810  1.2327  0.7348  0.1161
 6927SOL     MW26898   4.986   3.207   3.725  0.2661  0.6201  0.1395
 6928SOL     OW26899   1.740   3.663   5.156 -0.3747 -0.3311 -0.1056
 6928SOL    HW126900   1.676   3.591   5.157  0.8395 -1.4189  1.1416
 6928SOL    HW226901   1.713   3.717   5.082 -2.6101 -0.8840  0.2505
 6928SOL     MW26902   1.728   3.661   5.146 -0.5054 -0.5412  0.1001
 6929SOL     OW26903   5.459   5.666   5.556 -0.0491  0.6259  0.0041
 6929SOL    HW126904   5.456   5.754   5.594  1.5783  0.7153 -0.0441
 6929SOL    HW226905   5.481   5.680   5.465  1.5861  0.0934  0.3093
 6929SOL     MW26906   5.461   5.679   5.549  0.3686  0.5693  0.0367
 6930SOL     OW26907   0.687   3.949   1.320 -0.0368 -0.2820 -0.0783
 6930SOL    HW126908   0.694   3.859   1.289 -0.8057 -0.0421 -0.9708
 6930SOL    HW226909   0.769   3.965   1.368  1.1056 -0.7202 -1.8534
 6930SOL     MW26910   0.699   3.940   1.322  0.0110 -0.3073 -0.4196
 6931SOL     OW26911   1.182   1.756   0.850  0.5931 -0.9507 -0.2946
 6931SOL    HW126912   1.271   1.734   0.826  1.7664  3.3263 -0.2715
 6931SOL    HW226913   1.181   1.752   0.946  0.0826 -3.2982 -0.3860
 6931SOL     MW26914   1.193   1.753   0.860  0.6779 -0.7037 -0.3034
 6932SOL     OW26915   5.319   0.535   4.626 -0.2702  0.0328 -0.1722
 6932SOL    HW126916   5.243   0.591   4.642  0.4701  0.7331  1.0063
 6932SOL    HW226917   5.317   0.472   4.698  1.0635  0.9533  0.6973
 6932SOL     MW26918   5.309   0.534   4.638 -0.0048  0.2403  0.0901
 6933SOL     OW26919   2.139   2.480   2.610  0.5736  0.7936  0.3427
 6933SOL    HW126920   2.155   2.457   2.518 -1.2370 -1.0543  0.4505
 6933SOL    HW226921   2.220   2.458   2.655  1.4291  1.5942 -0.7845
 6933SOL     MW26922   2.151   2.474   2.604  0.4511  0.6595  0.2122
 6934SOL     OW26923   0.278   1.991   1.356  0.3284 -0.2320 -0.2576
 6934SOL    HW126924   0.213   1.932   1.319  0.4294 -0.4149 -0.1405
 6934SOL    HW226925   0.291   1.961   1.445 -2.2690  2.1326  0.9833
 6934SOL     MW26926   0.272   1.980   1.362  0.0088  0.0473 -0.0838
 6935SOL     OW26927   2.634   3.558   1.963  0.3189 -0.1421 -0.0732
 6935SOL    HW126928   2.718   3.578   2.004 -0.0044  1.9303 -0.3698
 6935SOL    HW226929   2.643   3.592   1.873 -0.0655 -1.8668 -0.7773
 6935SOL     MW26930   2.646   3.565   1.957  0.2282 -0.0975 -0.2013
 6936SOL     OW26931   2.967   2.173   3.172 -0.0201 -0.3697  0.5834
 6936SOL    HW126932   3.051   2.128   3.174  0.1495 -0.0544  0.6625
 6936SOL    HW226933   2.903   2.105   3.150  0.4040 -0.3908 -0.6424
 6936SOL     MW26934   2.970   2.159   3.169  0.0558 -0.3321  0.4368
 6937SOL     OW26935   2.121   1.924   5.202  0.0173 -0.0536 -0.5753
 6937SOL    HW126936   2.156   2.013   5.212 -0.7657  0.1583  0.3225
 6937SOL    HW226937   2.196   1.867   5.223  0.7183  0.3662 -1.8389
 6937SOL     MW26938   2.135   1.928   5.206  0.0064  0.0272 -0.6218
 6938SOL     OW26939   0.590   0.949   1.827  1.0110  0.3469  0.0225
 6938SOL    HW126940   0.531   0.893   1.876  0.7386  0.2995 -0.3594
 6938SOL    HW226941   0.659   0.890   1.796  1.1331  0.3604  0.2636
 6938SOL     MW26942   0.591   0.934   1.829  0.9917  0.3425  0.0045
 6939SOL     OW26943   4.277   1.623   2.678 -0.5688 -0.3164 -0.9379
 6939SOL    HW126944   4.335   1.698   2.667 -0.5631 -0.5128 -2.2863
 6939SOL    HW226945   4.190   1.662   2.688 -0.3976 -0.0821 -0.3293
 6939SOL     MW26946   4.273   1.638   2.678 -0.5460 -0.3115 -1.0324
 6940SOL     OW26947   4.420   4.295   5.487  0.5033 -0.2080  0.1638
 6940SOL    HW126948   4.357   4.263   5.551 -0.1561 -1.2728 -0.9993
 6940SOL    HW226949   4.378   4.372   5.448  0.0509 -0.7361 -0.3939
 6940SOL     MW26950   4.407   4.301   5.490  0.3614 -0.4120 -0.0558
 6941SOL     OW26951   5.563   3.902   3.015  0.2846  0.3131  0.2820
 6941SOL    HW126952   5.582   3.975   3.074  1.6391 -0.1828  0.4948
 6941SOL    HW226953   5.590   3.934   2.929  0.6630  0.1539  0.3393
 6941SOL     MW26954   5.569   3.916   3.012  0.5064  0.2294  0.3166
 6942SOL     OW26955   3.350   3.626   2.987 -0.7021  0.3612 -0.1594
 6942SOL    HW126956   3.341   3.661   2.898 -0.9178  1.9535  0.4697
 6942SOL    HW226957   3.411   3.687   3.030 -1.7657  0.4736  1.2249
 6942SOL     MW26958   3.357   3.638   2.981 -0.8657  0.5791  0.0985
 6943SOL     OW26959   5.217   0.960   2.650  0.6373 -0.4416 -0.2341
 6943SOL    HW126960   5.131   0.971   2.690  0.4806 -0.4211 -0.5744
 6943SOL    HW226961   5.238   1.047   2.616  0.8074 -0.4391 -0.1228
 6943SOL     MW26962   5.209   0.973   2.651  0.6390 -0.4386 -0.2635
 6944SOL     OW26963   5.676   3.741   0.577 -0.0929 -0.0021  0.2752
 6944SOL    HW126964   5.768   3.717   0.566 -0.0757  0.5201 -0.7722
 6944SOL    HW226965   5.654   3.712   0.666  1.8708  2.4751  1.6173
 6944SOL     MW26966   5.685   3.734   0.587  0.1607  0.3819  0.3129
 6945SOL     OW26967   5.459   4.860   2.074 -0.1002 -0.7767 -0.2644
 6945SOL    HW126968   5.459   4.927   2.006  0.5085 -0.8036 -0.2940
 6945SOL    HW226969   5.542   4.871   2.119  0.0258 -1.5309 -0.2974
 6945SOL     MW26970   5.469   4.870   2.071 -0.0057 -0.8769 -0.2725
 6946SOL     OW26971   3.163   1.406   0.564 -0.1103  0.1502  0.1136
 6946SOL    HW126972   3.078   1.399   0.520  0.3727  0.8888 -0.9337
 6946SOL    HW226973   3.213   1.331   0.531 -0.0404  0.2271  0.0461
 6946SOL     MW26974   3.158   1.396   0.554 -0.0396  0.2545 -0.0291
 6947SOL     OW26975   4.536   2.705   1.904  0.2378 -0.5789 -0.4223
 6947SOL    HW126976   4.612   2.692   1.960  0.3122  1.2046 -0.0943
 6947SOL    HW226977   4.562   2.671   1.819  0.5254 -2.2440  0.3027
 6947SOL     MW26978   4.549   2.699   1.900  0.2842 -0.5636 -0.2875
 6948SOL     OW26979   4.520   2.800   4.506  0.3149  0.1589  0.4156
 6948SOL    HW126980   4.577   2.848   4.446 -0.0846  0.7112  0.4706
 6948SOL    HW226981   4.436   2.796   4.461  0.7248 -1.7255 -0.1931
 6948SOL     MW26982   4.516   2.806   4.493  0.3161 -0.0117  0.3452
 6949SOL     OW26983   2.215   3.156   3.954 -0.0445 -0.1434 -0.1439
 6949SOL    HW126984   2.262   3.073   3.966 -0.0038 -0.0086  0.6426
 6949SOL    HW226985   2.159   3.141   3.877 -0.4691 -1.1014  0.3388
 6949SOL     MW26986   2.214   3.143   3.945 -0.0937 -0.2489  0.0186
 6950SOL     OW26987   0.652   2.333   1.145 -0.5467  0.5751  0.3186
 6950SOL    HW126988   0.721   2.352   1.208 -1.0330 -0.1913  1.0943
 6950SOL    HW226989   0.697   2.325   1.061  0.3476 -0.1503  0.8587
 6950SOL     MW26990   0.666   2.334   1.142 -0.4944  0.3841  0.4870
 6951SOL     OW26991   1.799   2.456   5.199 -0.1628 -0.1227  0.3843
 6951SOL    HW126992   1.833   2.510   5.127 -1.2978  1.4618  1.0165
 6951SOL    HW226993   1.762   2.379   5.155  1.4924 -0.4375 -0.5190
 6951SOL     MW26994   1.799   2.453   5.184 -0.0963  0.0398  0.3495
 6952SOL     OW26995   5.630   2.049   4.983 -0.7772 -0.5998 -0.4391
 6952SOL    HW126996   5.643   1.991   5.058 -1.7895  0.6675  0.7354
 6952SOL    HW226997   5.579   1.996   4.921 -0.7365 -1.3488  0.1557
 6952SOL     MW26998   5.625   2.035   4.984 -0.9012 -0.5333 -0.2122
 6953SOL     OW26999   4.185   4.231   2.829 -0.2039  0.3469  0.0767
 6953SOL    HW127000   4.274   4.232   2.796  0.2002  1.5463  1.1331
 6953SOL    HW227001   4.178   4.312   2.881 -1.9305  0.3352 -0.1009
 6953SOL     MW27002   4.195   4.242   2.832 -0.3734  0.4988  0.1893
 6954SOL     OW27003   5.035   5.751   4.840  0.1564  0.0257  1.4280
 6954SOL    HW127004   5.094   5.678   4.825 -0.4041 -0.1950  0.3225
 6954SOL    HW227005   4.998   5.771   4.755  1.8147  2.9032  1.3253
 6954SOL     MW27006   5.038   5.744   4.827  0.2975  0.3662  1.2732
 6955SOL     OW27007   3.518   4.250   4.504  0.1867  0.3091  0.1023
 6955SOL    HW127008   3.597   4.198   4.494  1.0804  1.3827  1.4566
 6955SOL    HW227009   3.484   4.261   4.414  1.4677 -0.2944 -0.4586
 6955SOL     MW27010   3.524   4.245   4.491  0.4652  0.3695  0.2046
 6956SOL     OW27011   1.779   4.003   3.708 -0.0415  0.1727  0.3275
 6956SOL    HW127012   1.838   4.078   3.714 -1.8164  1.5200  1.0265
 6956SOL    HW227013   1.715   4.027   3.641 -0.0654 -1.1339 -0.1462
 6956SOL     MW27014   1.779   4.016   3.700 -0.2719  0.1779  0.3564
 6957SOL     OW27015   0.328   3.745   0.488  0.0542 -0.0666 -0.1743
 6957SOL    HW127016   0.288   3.790   0.562  0.9795 -0.2662  0.4575
 6957SOL    HW227017   0.421   3.770   0.493  0.4990 -1.6830 -0.0817
 6957SOL     MW27018   0.335   3.754   0.498  0.2296 -0.2992 -0.0815
 6958SOL     OW27019   1.816   5.151   4.775  0.4061 -0.6405 -0.1472
 6958SOL    HW127020   1.752   5.184   4.711  0.0597 -0.9917  0.0144
 6958SOL    HW227021   1.822   5.058   4.756  1.1341 -0.5462 -0.3852
 6958SOL     MW27022   1.808   5.144   4.764  0.4549 -0.6738 -0.1569
 6959SOL     OW27023   0.719   4.358   1.029 -0.5112 -0.5060  0.1152
 6959SOL    HW127024   0.728   4.409   1.109 -0.0702 -1.0688  0.4356
 6959SOL    HW227025   0.651   4.294   1.048 -1.1516  0.0315 -0.3270
 6959SOL     MW27026   0.712   4.356   1.041 -0.5367 -0.5097  0.0997
 6960SOL     OW27027   2.111   2.736   2.934 -0.2401  0.6847 -0.0794
 6960SOL    HW127028   2.093   2.794   3.009 -2.6336  0.1637 -0.2003
 6960SOL    HW227029   2.045   2.761   2.869 -0.2911 -1.0987 -0.7345
 6960SOL     MW27030   2.100   2.747   2.935 -0.5529  0.3896 -0.1786
 6961SOL     OW27031   3.688   1.586   5.219 -0.0943  0.2863  0.0912
 6961SOL    HW127032   3.646   1.500   5.218 -0.7605  0.6167 -1.3512
 6961SOL    HW227033   3.779   1.568   5.241 -0.2597 -0.7751 -0.0843
 6961SOL     MW27034   3.694   1.573   5.222 -0.2010  0.1928 -0.1159
 6962SOL     OW27035   2.156   5.106   0.876  0.1944  0.0386 -0.3589
 6962SOL    HW127036   2.245   5.108   0.843  0.3781 -1.6142  0.0048
 6962SOL    HW227037   2.142   5.194   0.912  0.9351  0.9696 -2.2725
 6962SOL     MW27038   2.165   5.118   0.877  0.3126 -0.0539 -0.5574
 6963SOL     OW27039   0.958   4.951   4.400 -0.2347  0.4708 -0.3210
 6963SOL    HW127040   0.887   5.009   4.425 -1.0057 -0.6683  0.1704
 6963SOL    HW227041   0.920   4.863   4.404  1.1003 -0.1219 -0.3794
 6963SOL     MW27042   0.944   4.947   4.403 -0.1625  0.2489 -0.2661
 6964SOL     OW27043   5.338   2.506   0.664  0.2034 -0.2537 -0.0119
 6964SOL    HW127044   5.366   2.426   0.619 -0.7294 -0.2047 -0.6908
 6964SOL    HW227045   5.274   2.546   0.605  0.2162  0.6853  0.5978
 6964SOL     MW27046   5.333   2.501   0.651  0.0858 -0.1273 -0.0207
 6965SOL     OW27047   1.620   5.837   1.306  0.5524 -0.3074 -0.2725
 6965SOL    HW127048   1.559   5.833   1.233  0.9033  2.1240 -0.7565
 6965SOL    HW227049   1.580   5.784   1.374 -1.2953 -0.0851 -1.1672
 6965SOL     MW27050   1.607   5.830   1.305  0.3608  0.0319 -0.4491
 6966SOL     OW27051   5.753   2.149   1.379 -0.1007 -0.5046 -0.1162
 6966SOL    HW127052   5.763   2.059   1.411 -3.7729 -0.1303  2.3708
 6966SOL    HW227053   5.697   2.142   1.302  1.2037 -0.4803 -1.0941
 6966SOL     MW27054   5.747   2.137   1.373 -0.4039 -0.4535  0.0769
 6967SOL     OW27055   4.920   3.533   2.518  0.3673  0.2625  0.1445
 6967SOL    HW127056   4.958   3.611   2.480  1.0645 -0.7868 -1.3500
 6967SOL    HW227057   4.974   3.515   2.595  2.6547 -0.9239 -1.6762
 6967SOL     MW27058   4.932   3.541   2.523  0.7491 -0.0236 -0.2797
 6968SOL     OW27059   5.937   1.697   5.708 -0.2017 -0.1938 -0.2243
 6968SOL    HW127060   5.972   1.672   5.622  0.3865  0.8034 -0.2839
 6968SOL    HW227061   5.944   1.618   5.761  1.0801 -0.3409 -0.5867
 6968SOL     MW27062   5.943   1.684   5.704  0.0377 -0.0850 -0.2785
 6969SOL     OW27063   4.471   3.549   2.597 -0.8970  0.1485  0.1223
 6969SOL    HW127064   4.515   3.563   2.513  2.2735  0.1228  1.7220
 6969SOL    HW227065   4.396   3.492   2.575  0.6088 -0.9134 -2.4979
 6969SOL     MW27066   4.467   3.543   2.583 -0.2985  0.0093 -0.0083
 6970SOL     OW27067   5.386   3.657   2.563  0.3990 -0.5898 -0.2152
 6970SOL    HW127068   5.479   3.636   2.576  0.2142 -0.3230  1.5388
 6970SOL    HW227069   5.348   3.576   2.528  0.6045 -1.8302  2.3098
 6970SOL     MW27070   5.393   3.644   2.560  0.4015 -0.7145  0.3324
 6971SOL     OW27071   0.008   3.873   1.680  0.2099 -0.2843  0.6000
 6971SOL    HW127072   0.070   3.944   1.696 -1.3142  0.7116  2.2087
 6971SOL    HW227073   0.019   3.852   1.587  1.9524  0.8109  0.5383
 6971SOL     MW27074   0.017   3.880   1.670  0.2375 -0.0165  0.7980
 6972SOL     OW27075   4.891   5.769   0.048  0.3468  0.1703  0.1307
 6972SOL    HW127076   4.800   5.739   0.049  0.6253 -0.8602 -2.0493
 6972SOL    HW227077   4.920   5.762   0.139 -1.5396 -0.1229  0.7285
 6972SOL     MW27078   4.883   5.764   0.060  0.1407  0.0010 -0.0718
 6973SOL     OW27079   1.290   3.341   1.499 -0.7409 -0.3978 -0.0152
 6973SOL    HW127080   1.380   3.374   1.500 -1.0618  0.5010  0.3081
 6973SOL    HW227081   1.241   3.405   1.551 -1.5315 -0.9731 -0.0474
 6973SOL     MW27082   1.295   3.354   1.506 -0.8832 -0.3564  0.0221
 6974SOL     OW27083   1.323   2.775   0.624  0.1042 -0.6657 -0.3263
 6974SOL    HW127084   1.345   2.745   0.712  1.2066 -1.1527 -0.7651
 6974SOL    HW227085   1.268   2.706   0.588 -0.4868 -0.3885  0.0341
 6974SOL     MW27086   1.318   2.762   0.631  0.1695 -0.6926 -0.3363
 6975SOL     OW27087   1.422   1.996   1.438  0.3562  0.7146  0.4316
 6975SOL    HW127088   1.517   1.985   1.442  0.5084  1.6023 -0.5732
 6975SOL    HW227089   1.403   2.067   1.501  0.1611 -0.5525  1.8271
 6975SOL     MW27090   1.431   2.004   1.447  0.3506  0.6659  0.4815
 6976SOL     OW27091   4.234   2.182   0.653 -0.5331 -0.7860  0.0547
 6976SOL    HW127092   4.145   2.215   0.665 -0.3489  0.5138 -1.8255
 6976SOL    HW227093   4.288   2.261   0.646  0.8000 -1.5612  1.2636
 6976SOL     MW27094   4.229   2.196   0.653 -0.3390 -0.7191 -0.0313
 6977SOL     OW27095   5.517   5.974   4.384 -0.3449  0.1292 -0.5119
 6977SOL    HW127096   5.446   6.035   4.405  0.0991  0.6787 -0.6001
 6977SOL    HW227097   5.493   5.939   4.298 -1.0086 -0.4267 -0.1058
 6977SOL     MW27098   5.505   5.977   4.376 -0.3729  0.1287 -0.4711
 6978SOL     OW27099   3.316   0.897   0.526 -0.3427 -0.1775  0.2525
 6978SOL    HW127100   3.358   0.823   0.570  1.7077  0.0873 -1.2145
 6978SOL    HW227101   3.383   0.966   0.524 -1.3189  0.7707 -0.8185
 6978SOL     MW27102   3.330   0.896   0.531 -0.2053 -0.0222 -0.0724
 6979SOL     OW27103   4.014   2.492   0.369 -0.2790 -0.5575 -0.3811
 6979SOL    HW127104   3.934   2.525   0.327 -0.1972  0.3074  0.1297
 6979SOL    HW227105   4.075   2.566   0.363 -0.8849  0.2999  3.0097
 6979SOL     MW27106   4.012   2.506   0.363 -0.3462 -0.3371  0.1184
 6980SOL     OW27107   2.649   1.626   2.610 -0.5314  0.1207  0.5421
 6980SOL    HW127108   2.679   1.625   2.519  0.2426  0.9444  0.7780
 6980SOL    HW227109   2.555   1.644   2.604 -0.7600 -1.2179 -0.1510
 6980SOL     MW27110   2.641   1.628   2.597 -0.4618  0.0547  0.4838
 6981SOL     OW27111   4.652   0.544   1.397  0.0084 -0.1629 -0.3193
 6981SOL    HW127112   4.567   0.512   1.427 -0.3989  0.6232 -0.6236
 6981SOL    HW227113   4.679   0.481   1.331 -0.2698 -0.4930 -0.1243
 6981SOL     MW27114   4.644   0.532   1.393 -0.0796 -0.1045 -0.3333
 6982SOL     OW27115   1.056   0.337   0.761  0.4543 -0.2702 -0.2832
 6982SOL    HW127116   1.023   0.366   0.676  1.7814 -0.3787 -0.8440
 6982SOL    HW227117   1.067   0.417   0.812  1.8841  0.0226 -1.0278
 6982SOL     MW27118   1.053   0.351   0.757  0.8073 -0.2466 -0.4503
 6983SOL     OW27119   0.330   1.966   2.123 -0.4305  1.2002 -0.2142
 6983SOL    HW127120   0.343   1.876   2.153  1.3033  1.7280  0.6652
 6983SOL    HW227121   0.236   1.982   2.135 -0.6353 -0.2683  0.2152
 6983SOL     MW27122   0.319   1.957   2.128 -0.2348  1.0798 -0.0467
 6984SOL     OW27123   0.859   1.881   5.701 -0.4785  0.1445 -0.2846
 6984SOL    HW127124   0.856   1.907   5.793 -1.0849  0.6141 -0.4350
 6984SOL    HW227125   0.906   1.798   5.701  0.3950  0.6263  0.3393
 6984SOL     MW27126   0.865   1.874   5.712 -0.4443  0.2663 -0.2236
 6985SOL     OW27127   1.010   3.498   1.910  0.5271  0.0607  0.4205
 6985SOL    HW127128   1.001   3.574   1.968 -0.0846  0.6245 -0.3955
 6985SOL    HW227129   1.095   3.460   1.933  2.2335  2.7441 -1.1944
 6985SOL     MW27130   1.020   3.503   1.921  0.6672  0.4764  0.1093
 6986SOL     OW27131   1.970   4.257   3.977  0.1554  0.4321 -0.0556
 6986SOL    HW127132   2.017   4.174   3.983 -1.1205 -0.1811  1.5985
 6986SOL    HW227133   2.034   4.322   4.006  0.3737 -0.2599  1.0371
 6986SOL     MW27134   1.984   4.255   3.981  0.0200  0.2651  0.2964
 6987SOL     OW27135   3.153   0.127   3.426 -0.3248  0.3809 -0.0347
 6987SOL    HW127136   3.248   0.112   3.431 -0.7290 -3.1174 -1.0729
 6987SOL    HW227137   3.139   0.153   3.335 -0.4482  0.1514 -0.0807
 6987SOL     MW27138   3.164   0.128   3.415 -0.3922 -0.0963 -0.1736
 6988SOL     OW27139   3.785   3.619   3.334  0.5098 -0.0942 -0.9206
 6988SOL    HW127140   3.867   3.585   3.371 -0.0750 -0.5615 -0.0462
 6988SOL    HW227141   3.800   3.713   3.325  1.3225 -0.2464 -1.2471
 6988SOL     MW27142   3.798   3.626   3.337  0.5388 -0.1736 -0.8502
 6989SOL     OW27143   4.565   3.716   4.277 -0.4094 -0.0981 -0.1153
 6989SOL    HW127144   4.519   3.644   4.235  0.4308 -0.3442 -0.6371
 6989SOL    HW227145   4.595   3.771   4.205  0.9234 -0.4448  0.1646
 6989SOL     MW27146   4.563   3.714   4.263 -0.1311 -0.1738 -0.1464
 6990SOL     OW27147   3.018   4.410   3.205 -0.2023  0.0207 -0.3025
 6990SOL    HW127148   3.050   4.402   3.295 -2.1968 -2.3091  0.2613
 6990SOL    HW227149   3.067   4.343   3.157  0.4930  0.9215 -0.8669
 6990SOL     MW27150   3.028   4.400   3.210 -0.3684 -0.1626 -0.3028
 6991SOL     OW27151   3.265   0.562   4.356  0.4419  0.1840 -0.1890
 6991SOL    HW127152   3.203   0.498   4.321  1.6853 -1.5068  0.6435
 6991SOL    HW227153   3.324   0.511   4.412  1.8759  1.9475 -0.0397
 6991SOL     MW27154   3.265   0.547   4.359  0.7846  0.1933 -0.0629
 6992SOL     OW27155   4.035   3.791   0.117  0.1830  0.2231  0.2640
 6992SOL    HW127156   3.984   3.793   0.036 -1.1447 -0.4804  1.0590
 6992SOL    HW227157   3.972   3.815   0.185  1.0775 -0.0400  1.1950
 6992SOL     MW27158   4.020   3.794   0.116  0.1278  0.0992  0.4849
 6993SOL     OW27159   3.599   3.564   0.490 -0.0934 -0.2702  0.9954
 6993SOL    HW127160   3.577   3.608   0.408  0.8131  1.2980  1.5840
 6993SOL    HW227161   3.681   3.518   0.470 -0.8179 -1.3726  0.5065
 6993SOL     MW27162   3.607   3.564   0.477 -0.0701 -0.2108  1.0082
 6994SOL     OW27163   1.372   0.641   3.447 -1.1087  0.2831  0.0184
 6994SOL    HW127164   1.319   0.613   3.373 -1.7226  0.3859  0.4087
 6994SOL    HW227165   1.354   0.576   3.515  1.8592 -1.5938 -0.9144
 6994SOL     MW27166   1.363   0.629   3.447 -0.8075  0.0560 -0.0510
 6995SOL     OW27167   5.199   2.722   5.670  0.1525 -0.0964 -0.3683
 6995SOL    HW127168   5.128   2.781   5.644  0.7568  0.4995 -0.6620
 6995SOL    HW227169   5.278   2.776   5.667  0.7619 -1.0111 -0.9863
 6995SOL     MW27170   5.200   2.737   5.667  0.3080 -0.1376 -0.4849
 6996SOL     OW27171   2.046   2.722   2.503  0.0953  0.2803 -0.5621
 6996SOL    HW127172   2.067   2.645   2.557  0.0024 -0.4498 -1.5504
 6996SOL    HW227173   1.956   2.707   2.475 -1.3553  2.7247  2.5274
 6996SOL     MW27174   2.037   2.710   2.506 -0.1023  0.5000 -0.2930
 6997SOL     OW27175   0.089   4.227   2.156  0.3245 -0.1359 -1.0445
 6997SOL    HW127176   0.126   4.209   2.242  0.0636 -0.0600 -0.9156
 6997SOL    HW227177   0.161   4.212   2.095  0.2772 -1.0337 -0.8913
 6997SOL     MW27178   0.103   4.223   2.159  0.2851 -0.2413 -1.0085
 6998SOL     OW27179   3.073   5.965   1.616 -0.3550 -0.0814 -0.2714
 6998SOL    HW127180   3.046   5.998   1.702 -0.0738 -0.6618  0.0476
 6998SOL    HW227181   3.111   6.040   1.572 -2.0184  0.6424 -0.5397
 6998SOL     MW27182   3.074   5.979   1.621 -0.5319 -0.0630 -0.2650
 6999SOL     OW27183   0.332   3.612   5.277 -0.0223 -0.2471  0.2044
 6999SOL    HW127184   0.376   3.630   5.360  0.7060 -0.6183 -0.0972
 6999SOL    HW227185   0.243   3.644   5.290  0.9506  2.7140  0.0052
 6999SOL     MW27186   0.326   3.618   5.289  0.1955  0.0846  0.1407
 7000SOL     OW27187   2.053   5.705   3.442  0.3738 -0.1569  0.0893
 7000SOL    HW127188   2.103   5.624   3.440  0.4094 -0.1436  0.5237
 7000SOL    HW227189   2.120   5.774   3.450  0.4055 -0.0276 -1.2104
 7000SOL     MW27190   2.068   5.704   3.443  0.3824 -0.1388 -0.0215
 7001SOL     OW27191   2.706   1.148   0.204  0.3776 -0.0793  0.1253
 7001SOL    HW127192   2.792   1.105   0.195 -0.1232 -1.0209 -0.1855
 7001SOL    HW227193   2.726   1.242   0.201  1.3506 -0.2965 -0.4073
 7001SOL     MW27194   2.720   1.155   0.203  0.4380 -0.2276  0.0174
 7002SOL     OW27195   1.109   5.028   0.037  0.5887 -0.0175 -0.1990
 7002SOL    HW127196   1.026   5.074   0.048  1.2580  1.3812 -0.8485
 7002SOL    HW227197   1.171   5.076   0.092  0.6410 -2.0332  1.5751
 7002SOL     MW27198   1.107   5.040   0.045  0.6809 -0.0968 -0.0550
 7003SOL     OW27199   0.632   0.175   1.773 -0.1705  0.1088  0.4229
 7003SOL    HW127200   0.642   0.092   1.820 -2.7305  0.5689  1.8868
 7003SOL    HW227201   0.575   0.228   1.829 -1.9454  1.3207 -2.4086
 7003SOL     MW27202   0.626   0.171   1.786 -0.7254  0.3228  0.2477
 7004SOL     OW27203   5.478   5.486   0.953 -0.0884  0.5398  0.2537
 7004SOL    HW127204   5.441   5.570   0.981  0.7753  1.4415 -1.1958
 7004SOL    HW227205   5.411   5.448   0.896  0.4680  1.3904 -1.0139
 7004SOL     MW27206   5.465   5.492   0.949  0.0935  0.7639 -0.0942
 7005SOL     OW27207   2.297   1.636   1.753 -0.0638  0.5229  0.0256
 7005SOL    HW127208   2.261   1.716   1.792 -0.1720 -0.8794  2.9860
 7005SOL    HW227209   2.259   1.565   1.806  0.8981 -1.4194 -1.8211
 7005SOL     MW27210   2.288   1.637   1.765  0.0453  0.0948  0.1682
 7006SOL     OW27211   4.368   1.806   5.730  0.1042 -0.1113 -0.0179
 7006SOL    HW127212   4.410   1.888   5.753 -0.3860 -0.0421  0.6842
 7006SOL    HW227213   4.295   1.799   5.792 -0.4072 -0.6259 -0.6678
 7006SOL     MW27214   4.364   1.815   5.741 -0.0238 -0.1683 -0.0114
 7007SOL     OW27215   0.501   4.164   0.163 -0.0393 -0.1184  0.1360
 7007SOL    HW127216   0.596   4.161   0.152  0.2423 -0.3422  2.2643
 7007SOL    HW227217   0.466   4.139   0.078  1.8115  0.0790 -0.7104
 7007SOL     MW27218   0.509   4.160   0.151  0.2337 -0.1216  0.3001
 7008SOL     OW27219   4.131   5.750   4.959 -0.0394 -0.0887 -0.1822
 7008SOL    HW127220   4.090   5.721   5.041 -0.2169  0.6666  0.0061
 7008SOL    HW227221   4.123   5.846   4.962  2.0513  0.0904  0.0257
 7008SOL     MW27222   4.125   5.759   4.970  0.2050  0.0310 -0.1311
 7009SOL     OW27223   5.988   5.863   0.437  0.7766 -0.2422  0.4318
 7009SOL    HW127224   5.901   5.902   0.446  1.0406  0.6869 -0.9285
 7009SOL    HW227225   5.979   5.776   0.475  0.1220  1.0261  3.3719
 7009SOL     MW27226   5.976   5.857   0.443  0.7262  0.0391  0.6340
 7010SOL     OW27227   0.082   2.814   1.150 -0.0330 -0.0793 -0.0937
 7010SOL    HW127228  -0.010   2.843   1.144  0.3261  1.8974  2.8364
 7010SOL    HW227229   0.129   2.892   1.179  2.0871 -1.9117  1.4578
 7010SOL     MW27230   0.076   2.828   1.153  0.2845 -0.0610  0.4801
 7011SOL     OW27231   1.762   5.093   5.784  0.2504 -0.0462 -0.5920
 7011SOL    HW127232   1.793   5.166   5.837  1.1571 -0.7166 -0.1907
 7011SOL    HW227233   1.668   5.090   5.800  0.2974  0.6772 -0.1692
 7011SOL     MW27234   1.754   5.102   5.792  0.3724 -0.0391 -0.4864
 7012SOL     OW27235   2.603   5.060   1.854  0.2248  0.0739 -0.3816
 7012SOL    HW127236   2.552   5.099   1.782 -0.2143  0.6865  0.2585
 7012SOL    HW227237   2.570   4.970   1.860  1.3523 -0.4861 -1.9658
 7012SOL     MW27238   2.592   5.053   1.845  0.3130  0.0811 -0.5023
 7013SOL     OW27239   1.312   3.403   0.350 -0.0606 -0.2712  0.2935
 7013SOL    HW127240   1.330   3.461   0.425  0.1690  0.1210 -0.0638
 7013SOL    HW227241   1.317   3.315   0.386  0.5018 -0.0980  0.6433
 7013SOL     MW27242   1.315   3.399   0.364  0.0409 -0.1991  0.2926
 7014SOL     OW27243   5.059   0.796   1.898 -0.1355  0.6651 -0.2616
 7014SOL    HW127244   5.135   0.748   1.931  0.3856  1.9781  0.5225
 7014SOL    HW227245   5.079   0.812   1.805 -0.6785 -1.2704 -0.7439
 7014SOL     MW27246   5.071   0.792   1.890 -0.1378  0.5854 -0.2229
 7015SOL     OW27247   4.470   5.961   4.881  0.1128 -0.4728  1.1457
 7015SOL    HW127248   4.415   6.017   4.935  0.0324  0.6065 -0.0216
 7015SOL    HW227249   4.410   5.895   4.845 -0.4590  0.7464 -0.1875
 7015SOL     MW27250   4.455   5.960   4.883  0.0291 -0.1788  0.8259
 7016SOL     OW27251   4.215   4.168   5.611  0.2198  0.3962 -0.0448
 7016SOL    HW127252   4.144   4.219   5.572  1.1655  0.9649 -1.0366
 7016SOL    HW227253   4.210   4.189   5.704 -5.0647 -4.5831  1.1482
 7016SOL     MW27254   4.205   4.177   5.618 -0.3352 -0.1678 -0.0196
 7017SOL     OW27255   3.003   0.389   2.823 -0.5198 -0.3651 -0.3514
 7017SOL    HW127256   2.942   0.353   2.888  0.3502 -0.7422  0.2608
 7017SOL    HW227257   2.996   0.329   2.748 -1.2574 -0.1299 -0.4819
 7017SOL     MW27258   2.994   0.377   2.822 -0.5028 -0.3833 -0.2897
 7018SOL     OW27259   3.761   2.651   5.247 -0.5517  0.7814  0.2564
 7018SOL    HW127260   3.694   2.716   5.227 -0.2283  0.1983 -2.9878
 7018SOL    HW227261   3.725   2.568   5.215  1.3434  0.3165 -0.7729
 7018SOL     MW27262   3.748   2.648   5.241 -0.2675  0.6473 -0.2904
 7019SOL     OW27263   3.596   3.905   3.484 -0.5651  0.2399  0.7390
 7019SOL    HW127264   3.616   3.998   3.485  0.2718  0.0791 -0.2062
 7019SOL    HW227265   3.652   3.867   3.552 -1.0394  0.4598  1.2456
 7019SOL     MW27266   3.606   3.912   3.493 -0.5186  0.2475  0.6831
 7020SOL     OW27267   4.078   4.689   4.175  0.1283 -0.1683  0.0731
 7020SOL    HW127268   4.090   4.671   4.268 -1.0151  0.1199  0.2843
 7020SOL    HW227269   4.105   4.609   4.131 -1.4317 -1.1154  0.7856
 7020SOL     MW27270   4.083   4.677   4.181 -0.2179 -0.2532  0.1917
 7021SOL     OW27271   0.111   5.244   2.960 -0.3407  0.2412  0.4129
 7021SOL    HW127272   0.138   5.333   2.984  0.7754 -0.9440  3.8332
 7021SOL    HW227273   0.015   5.249   2.956 -0.2409  1.9234 -1.0765
 7021SOL     MW27274   0.102   5.256   2.962 -0.1851  0.3052  0.6602
 7022SOL     OW27275   1.197   1.317   1.107  0.4092  0.4213 -0.2392
 7022SOL    HW127276   1.130   1.329   1.040  0.3666 -0.5307 -0.3717
 7022SOL    HW227277   1.202   1.222   1.119  0.9150  0.5529  0.5980
 7022SOL     MW27278   1.189   1.306   1.100  0.4685  0.3163 -0.1489
 7023SOL     OW27279   0.240   1.343   2.050 -0.1933  0.0087  0.6967
 7023SOL    HW127280   0.248   1.261   2.099 -1.7203 -1.7180 -1.8196
 7023SOL    HW227281   0.308   1.338   1.983 -1.0177  0.2609 -0.1714
 7023SOL     MW27282   0.250   1.332   2.048 -0.4943 -0.1800  0.2637
 7024SOL     OW27283   0.076   0.385   1.022 -0.0278 -0.3018  0.2578
 7024SOL    HW127284   0.146   0.321   1.033 -0.4007 -0.5987  0.9690
 7024SOL    HW227285  -0.005   0.334   1.032 -0.3267  0.2249  0.5509
 7024SOL     MW27286   0.075   0.370   1.025 -0.1137 -0.2723  0.3864
 7025SOL     OW27287   0.251   1.626   2.456 -0.2534  0.0848  0.1846
 7025SOL    HW127288   0.319   1.626   2.389  0.2200 -1.9789  0.6434
 7025SOL    HW227289   0.297   1.645   2.537 -0.6509  1.3823  0.1214
 7025SOL     MW27290   0.265   1.629   2.458 -0.2437 -0.0134  0.2351
 7026SOL     OW27291   5.093   3.260   3.450 -0.2026  0.2974 -0.0659
 7026SOL    HW127292   5.082   3.165   3.444  0.2790  0.0407  2.4869
 7026SOL    HW227293   5.126   3.286   3.364  2.4773 -2.2508  0.1218
 7026SOL     MW27294   5.096   3.251   3.438  0.2027 -0.0618  0.2849
 7027SOL     OW27295   5.296   0.956   0.007  0.1389 -0.3932 -0.0676
 7027SOL    HW127296   5.207   0.932  -0.018  0.4449  0.1847 -1.7528
 7027SOL    HW227297   5.284   1.027   0.070 -0.5917 -0.0262 -0.6137
 7027SOL     MW27298   5.283   0.962   0.012  0.0849 -0.2723 -0.3532
 7028SOL     OW27299   4.461   5.294   2.881  0.0513 -0.2653 -0.1386
 7028SOL    HW127300   4.391   5.233   2.857  0.1222 -0.8274  1.0494
 7028SOL    HW227301   4.525   5.285   2.811 -1.3448  0.7367 -1.5872
 7028SOL     MW27302   4.460   5.285   2.869 -0.1187 -0.2089 -0.1717
 7029SOL     OW27303   3.969   1.447   5.351 -0.0175  0.1258 -0.4511
 7029SOL    HW127304   3.986   1.491   5.435 -1.1129  2.6876 -1.5078
 7029SOL    HW227305   4.006   1.507   5.286 -2.0972 -0.2180 -1.9763
 7029SOL     MW27306   3.976   1.461   5.354 -0.4241  0.4097 -0.7815
 7030SOL     OW27307   3.508   0.086   2.018 -0.1818 -0.4178  0.2972
 7030SOL    HW127308   3.518   0.160   2.077 -0.9619  0.3162 -0.4758
 7030SOL    HW227309   3.592   0.079   1.973  0.5904 -1.2938  1.8232
 7030SOL     MW27310   3.520   0.094   2.020 -0.1831 -0.4360  0.3939
 7031SOL     OW27311   2.515   4.241   3.249  0.1254 -0.3972 -0.6170
 7031SOL    HW127312   2.491   4.179   3.318 -0.6760 -0.0975 -0.6232
 7031SOL    HW227313   2.608   4.256   3.262  0.0803 -0.7214  0.0947
 7031SOL     MW27314   2.524   4.235   3.259  0.0169 -0.4005 -0.5267
 7032SOL     OW27315   0.421   1.676   2.682 -0.2588  0.1366 -0.2414
 7032SOL    HW127316   0.441   1.734   2.756 -1.7315  1.0220 -0.5280
 7032SOL    HW227317   0.422   1.588   2.719  2.5058  0.2629  0.1025
 7032SOL     MW27318   0.424   1.672   2.696 -0.0934  0.2662 -0.2341
 7033SOL     OW27319   5.506   0.825   4.019  0.0810 -1.0561 -0.1396
 7033SOL    HW127320   5.558   0.812   3.939  1.9207  2.2772  0.4109
 7033SOL    HW227321   5.421   0.854   3.988  1.2053  1.5317 -0.9187
 7033SOL     MW27322   5.502   0.827   4.005  0.4597 -0.2982 -0.1688
 7034SOL     OW27323   5.471   1.696   1.108 -0.1818 -0.1304  0.5841
 7034SOL    HW127324   5.420   1.685   1.028  0.0560 -0.6932  0.5094
 7034SOL    HW227325   5.440   1.779   1.145  0.8777  1.0044 -0.9625
 7034SOL     MW27326   5.461   1.706   1.102 -0.0162 -0.0572  0.3767
 7035SOL     OW27327   0.820   4.777   2.890  0.0789  0.4262 -1.0559
 7035SOL    HW127328   0.842   4.848   2.949 -1.0021 -0.7240  0.7588
 7035SOL    HW227329   0.725   4.779   2.883  0.1870  0.5292 -2.7407
 7035SOL     MW27330   0.811   4.786   2.896 -0.0457  0.2923 -1.0393
 7036SOL     OW27331   2.650   2.753   5.219  0.3692 -0.5322  0.2061
 7036SOL    HW127332   2.617   2.801   5.296  0.4717 -1.6345  0.9467
 7036SOL    HW227333   2.711   2.814   5.178  0.7813 -0.1620  1.3491
 7036SOL     MW27334   2.653   2.767   5.224  0.4351 -0.6258  0.4473
 7037SOL     OW27335   3.984   1.315   0.585 -0.0387 -0.3578  0.0759
 7037SOL    HW127336   4.004   1.227   0.617 -0.5636 -0.2531  0.7077
 7037SOL    HW227337   4.050   1.371   0.627  1.5488 -0.7109 -1.8917
 7037SOL     MW27338   3.995   1.311   0.595  0.0973 -0.3896 -0.0951
 7038SOL     OW27339   5.980   0.347   0.768  0.0296  0.7743 -0.0058
 7038SOL    HW127340   6.010   0.353   0.859  2.7299  3.9058 -0.9595
 7038SOL    HW227341   5.922   0.423   0.757  0.3335  0.8707 -1.0586
 7038SOL     MW27342   5.976   0.358   0.778  0.4144  1.1875 -0.2627
 7039SOL     OW27343   0.848   4.865   3.430 -0.0983  0.7555  0.0334
 7039SOL    HW127344   0.896   4.944   3.404  0.4185 -0.0664 -1.6043
 7039SOL    HW227345   0.757   4.884   3.406 -0.2084  1.3855  0.9273
 7039SOL     MW27346   0.842   4.877   3.424 -0.0462  0.7310 -0.0618
 7040SOL     OW27347   5.468   3.507   1.443  0.1520  0.1285 -0.4086
 7040SOL    HW127348   5.412   3.522   1.367 -1.4133 -0.2351  0.6453
 7040SOL    HW227349   5.554   3.487   1.406 -0.1316  1.7211 -2.0439
 7040SOL     MW27350   5.472   3.507   1.429 -0.0849  0.2859 -0.4829
 7041SOL     OW27351   4.863   1.337   2.914  1.0184  0.6492  0.5804
 7041SOL    HW127352   4.907   1.408   2.961  1.4185 -0.4185  1.8440
 7041SOL    HW227353   4.785   1.318   2.966  0.4926  0.6922 -0.1839
 7041SOL     MW27354   4.859   1.344   2.926  1.0023  0.5180  0.6444
 7042SOL     OW27355   2.267   0.341   2.939  0.5302  0.1122  0.2471
 7042SOL    HW127356   2.313   0.425   2.935 -0.1209  0.4903  0.5924
 7042SOL    HW227357   2.244   0.322   2.848  0.8246  0.2234  0.1475
 7042SOL     MW27358   2.270   0.350   2.927  0.4845  0.1749  0.2787
 7043SOL     OW27359   5.963   4.420   3.949  0.3799  0.1118 -0.8464
 7043SOL    HW127360   5.912   4.365   4.009 -2.5190  2.3248 -1.1853
 7043SOL    HW227361   5.921   4.408   3.864  3.1542 -1.3628 -2.0616
 7043SOL     MW27362   5.951   4.411   3.946  0.3643  0.2060 -1.0450
 7044SOL     OW27363   0.149   0.143   1.294  0.2800 -0.1113 -0.0635
 7044SOL    HW127364   0.243   0.126   1.286  0.6593  0.5015  2.6098
 7044SOL    HW227365   0.118   0.079   1.357 -1.5740 -1.7593 -2.5626
 7044SOL     MW27366   0.157   0.133   1.301  0.0912 -0.2438 -0.0414
 7045SOL     OW27367   1.223   2.086   3.345  0.8542  0.1674  0.2905
 7045SOL    HW127368   1.143   2.122   3.383  0.6630 -0.8205  0.8229
 7045SOL    HW227369   1.222   1.993   3.368  1.8753  0.0290 -0.1774
 7045SOL     MW27370   1.213   2.079   3.353  0.9605  0.0231  0.2990
 7046SOL     OW27371   3.989   0.834   5.732  0.2060  0.4440  0.4463
 7046SOL    HW127372   3.953   0.774   5.666 -0.6200 -0.3110  1.5613
 7046SOL    HW227373   3.912   0.867   5.778  0.8285  0.1994  1.6765
 7046SOL     MW27374   3.975   0.830   5.729  0.1798  0.3161  0.7467
 7047SOL     OW27375   0.659   1.850   5.114 -0.0819  0.6810 -0.0811
 7047SOL    HW127376   0.601   1.783   5.151  2.1164  0.4273  3.1290
 7047SOL    HW227377   0.612   1.932   5.126 -0.7090  0.2458  0.4893
 7047SOL     MW27378   0.646   1.852   5.120  0.1192  0.5929  0.4029
 7048SOL     OW27379   4.506   2.980   4.753 -0.6773 -0.7910  0.4125
 7048SOL    HW127380   4.424   3.011   4.714 -0.6412 -1.8097 -0.4866
 7048SOL    HW227381   4.538   2.914   4.692  1.0324 -0.1135  0.5426
 7048SOL     MW27382   4.499   2.976   4.740 -0.4539 -0.8347  0.3142
 7049SOL     OW27383   0.494   0.596   1.839 -0.3188 -1.2509  0.0379
 7049SOL    HW127384   0.467   0.507   1.860 -0.0913 -1.2068  0.5316
 7049SOL    HW227385   0.522   0.633   1.923  0.2944 -0.9637 -0.2870
 7049SOL     MW27386   0.494   0.590   1.853 -0.2111 -1.2084  0.0595
 7050SOL     OW27387   4.394   1.628   2.233  0.2793 -0.2971  0.2573
 7050SOL    HW127388   4.381   1.677   2.151 -0.7519  0.4027  0.8250
 7050SOL    HW227389   4.453   1.556   2.209  0.7922  0.4908 -0.8683
 7050SOL     MW27390   4.400   1.625   2.219  0.2131 -0.1067  0.1857
 7051SOL     OW27391   1.932   5.399   4.622 -0.7718 -0.2109 -0.2354
 7051SOL    HW127392   2.026   5.413   4.609 -1.0099  0.1853 -1.6529
 7051SOL    HW227393   1.913   5.316   4.578 -1.1753 -0.0377 -0.3958
 7051SOL     MW27394   1.941   5.390   4.615 -0.8538 -0.1383 -0.4373
 7052SOL     OW27395   3.576   2.370   5.718 -0.4144  0.5440  0.3241
 7052SOL    HW127396   3.624   2.323   5.785  1.4950  1.0001 -0.6683
 7052SOL    HW227397   3.574   2.310   5.643  0.5043  1.3322 -0.3519
 7052SOL     MW27398   3.582   2.357   5.717 -0.0525  0.7033  0.1106
 7053SOL     OW27399   0.544   5.158   0.920 -0.0413 -0.3740  0.9238
 7053SOL    HW127400   0.555   5.145   0.826 -0.3011 -0.0593  0.8469
 7053SOL    HW227401   0.536   5.253   0.930 -0.5291 -0.4451  1.2083
 7053SOL     MW27402   0.544   5.169   0.909 -0.1370 -0.3424  0.9504
 7054SOL     OW27403   5.830   1.891   3.946  0.3862 -0.4739  0.3164
 7054SOL    HW127404   5.877   1.826   3.894 -1.6311 -1.3093 -0.5095
 7054SOL    HW227405   5.826   1.854   4.034  0.7885 -0.6642  0.2517
 7054SOL     MW27406   5.835   1.878   3.950  0.1798 -0.6052  0.2027
 7055SOL     OW27407   1.478   5.692   1.481 -0.2544 -0.5709  0.5243
 7055SOL    HW127408   1.486   5.604   1.442 -0.9222  0.0294 -1.0213
 7055SOL    HW227409   1.384   5.709   1.481 -0.0872  0.3881  0.2597
 7055SOL     MW27410   1.467   5.683   1.476 -0.3185 -0.3715  0.2925
 7056SOL     OW27411   4.225   5.079   2.866 -0.1890 -0.9023  0.0565
 7056SOL    HW127412   4.215   5.118   2.953 -0.4929 -1.1789  0.1438
 7056SOL    HW227413   4.169   5.132   2.809 -2.0319 -2.3196  0.5053
 7056SOL     MW27414   4.217   5.091   2.870 -0.4640 -1.1191  0.1249
 7057SOL     OW27415   1.368   0.113   0.068 -0.7586 -0.6507  0.4466
 7057SOL    HW127416   1.298   0.177   0.080  1.8971  2.1780  1.4464
 7057SOL    HW227417   1.408   0.137  -0.015 -0.8804 -2.1873 -0.0708
 7057SOL     MW27418   1.364   0.125   0.059 -0.4343 -0.4853  0.5083
 7058SOL     OW27419   0.859   3.632   4.611  0.2317  0.3763 -0.1578
 7058SOL    HW127420   0.791   3.629   4.679  0.0306 -0.5837 -0.3881
 7058SOL    HW227421   0.853   3.720   4.575  0.0428  0.7485  0.7731
 7058SOL     MW27422   0.849   3.643   4.615  0.1818  0.3014 -0.0682
 7059SOL     OW27423   5.665   2.520   4.975 -0.2320 -1.1389 -0.1562
 7059SOL    HW127424   5.689   2.563   4.893  1.5504 -1.7465  0.0216
 7059SOL    HW227425   5.724   2.559   5.040 -2.5188  0.3167  1.1259
 7059SOL     MW27426   5.676   2.531   4.973 -0.2971 -1.0300  0.0305
 7060SOL     OW27427   0.208   0.728   3.649 -0.1056 -0.3646  0.5917
 7060SOL    HW127428   0.212   0.792   3.578  0.6686  0.4538  1.3466
 7060SOL    HW227429   0.238   0.777   3.726 -3.4016 -0.4848  2.0341
 7060SOL     MW27430   0.213   0.743   3.650 -0.4284 -0.2753  0.8729
 7061SOL     OW27431   2.337   0.555   5.668  0.8001 -0.0287 -0.5927
 7061SOL    HW127432   2.380   0.470   5.655  1.4578  0.3832 -1.1534
 7061SOL    HW227433   2.277   0.563   5.594  0.0986 -0.3914 -0.0671
 7061SOL     MW27434   2.335   0.545   5.657  0.7946 -0.0224 -0.5975
 7062SOL     OW27435   2.363   1.602   4.701  0.6064 -0.4407  0.8839
 7062SOL    HW127436   2.433   1.634   4.644 -0.1124  0.2896  0.4033
 7062SOL    HW227437   2.371   1.655   4.781  1.1374 -0.9501  1.1761
 7062SOL     MW27438   2.373   1.613   4.704  0.5822 -0.4125  0.8593
 7063SOL     OW27439   2.907   1.491   2.556  0.0836  0.2102  0.2658
 7063SOL    HW127440   2.959   1.570   2.541  0.7700 -0.0138  1.4596
 7063SOL    HW227441   2.846   1.515   2.626 -2.0737  0.7586 -1.7283
 7063SOL     MW27442   2.906   1.504   2.563 -0.1047  0.2517  0.1633
 7064SOL     OW27443   1.237   2.207   0.017 -0.0807  0.2296  0.1943
 7064SOL    HW127444   1.313   2.265   0.020 -0.4290  0.6820  0.3087
 7064SOL    HW227445   1.254   2.148  -0.057  0.3918  0.3080  0.2383
 7064SOL     MW27446   1.249   2.207   0.008 -0.0647  0.2975  0.2146
 7065SOL     OW27447   5.502   1.840   2.205  0.6701 -0.0608 -0.5995
 7065SOL    HW127448   5.437   1.804   2.266 -0.0605 -0.3109 -1.5129
 7065SOL    HW227449   5.560   1.893   2.260  0.1222 -0.4224  0.3358
 7065SOL     MW27450   5.501   1.842   2.220  0.5059 -0.1391 -0.5970
 7066SOL     OW27451   4.517   4.420   5.157 -0.7784 -0.0443  0.4819
 7066SOL    HW127452   4.605   4.450   5.137 -0.6527  0.1123  1.2434
 7066SOL    HW227453   4.517   4.326   5.136 -0.4359 -0.0412  0.4789
 7066SOL     MW27454   4.528   4.412   5.152 -0.7186 -0.0238  0.5794
 7067SOL     OW27455   5.941   1.087   5.650  0.6203 -0.4405  0.0260
 7067SOL    HW127456   5.895   1.100   5.567  0.8507 -0.7062 -0.1438
 7067SOL    HW227457   6.003   1.016   5.632  1.9777  0.7637 -0.1013
 7067SOL     MW27458   5.943   1.079   5.637  0.8240 -0.3203 -0.0124
 7068SOL     OW27459   0.614   0.406   0.912 -0.1684 -0.4428 -0.5828
 7068SOL    HW127460   0.606   0.481   0.854  1.2591 -0.7950 -1.2578
 7068SOL    HW227461   0.629   0.332   0.854  0.7442 -0.8855  0.2091
 7068SOL     MW27462   0.615   0.406   0.897  0.1312 -0.5446 -0.5678
 7069SOL     OW27463   0.556   5.566   3.422 -0.2873  0.1777  0.4060
 7069SOL    HW127464   0.557   5.612   3.338 -0.0358  0.4979  0.5836
 7069SOL    HW227465   0.612   5.490   3.407 -1.6839 -0.7346 -0.2542
 7069SOL     MW27466   0.564   5.562   3.409 -0.4339  0.1016  0.3440
 7070SOL     OW27467   4.142   0.623   0.511  0.0609  0.1881  0.6870
 7070SOL    HW127468   4.183   0.656   0.591 -1.0957  0.0513  1.3502
 7070SOL    HW227469   4.215   0.590   0.459  0.9942  1.6465  1.0227
 7070SOL     MW27470   4.157   0.623   0.515  0.0319  0.3573  0.8149
 7071SOL     OW27471   5.611   2.695   5.790  0.2627 -0.3138  0.2905
 7071SOL    HW127472   5.619   2.659   5.878 -0.7117  0.1196  0.5698
 7071SOL    HW227473   5.616   2.790   5.803 -3.4777 -0.0530  0.3417
 7071SOL     MW27474   5.613   2.703   5.803 -0.3414 -0.2251  0.3333
 7072SOL     OW27475   3.958   5.236   4.460  0.1813 -0.0333  0.3582
 7072SOL    HW127476   3.943   5.296   4.387  0.3064  0.1555  0.4865
 7072SOL    HW227477   4.037   5.269   4.502 -1.3125  1.4294  2.1441
 7072SOL     MW27478   3.966   5.248   4.456  0.0062  0.1779  0.6027
 7073SOL     OW27479   3.774   5.898   2.780 -0.3216 -1.1826  0.1403
 7073SOL    HW127480   3.772   5.959   2.707  1.3156  1.2367  2.0019
 7073SOL    HW227481   3.683   5.893   2.810 -0.8399 -1.4431 -1.4635
 7073SOL     MW27482   3.762   5.905   2.775 -0.1786 -0.9060  0.1733
 7074SOL     OW27483   1.499   1.610   1.530 -0.4146  0.2560  0.3953
 7074SOL    HW127484   1.537   1.580   1.613 -0.7390  1.3481  0.9409
 7074SOL    HW227485   1.568   1.665   1.491  0.2176 -1.2388 -0.6510
 7074SOL     MW27486   1.513   1.613   1.535 -0.3752  0.2044  0.3313
 7075SOL     OW27487   1.812   2.882   5.028  0.6212  0.2400 -0.3282
 7075SOL    HW127488   1.901   2.862   5.057  0.0003 -0.4896  1.0804
 7075SOL    HW227489   1.757   2.866   5.104 -0.4894  2.6831 -0.5455
 7075SOL     MW27490   1.816   2.878   5.042  0.3997  0.4597 -0.1755
 7076SOL     OW27491   4.722   1.113   2.639 -0.1579 -0.3330 -0.5492
 7076SOL    HW127492   4.763   1.196   2.661  1.2138 -1.0947 -0.1565
 7076SOL    HW227493   4.735   1.104   2.544 -1.6933  0.6231 -0.8616
 7076SOL     MW27494   4.729   1.122   2.629 -0.1788 -0.3082 -0.5393
 7077SOL     OW27495   0.479   3.363   5.725 -0.4682  0.5303 -0.6109
 7077SOL    HW127496   0.503   3.283   5.678  3.0451  1.2438 -0.2138
 7077SOL    HW227497   0.394   3.345   5.763  0.4882 -3.2350 -0.0836
 7077SOL     MW27498   0.471   3.350   5.724  0.1040  0.1397 -0.4930
 7078SOL     OW27499   5.511   5.115   0.795  0.5350  0.4752  0.7581
 7078SOL    HW127500   5.522   5.080   0.706  0.6981 -0.1756  1.0289
 7078SOL    HW227501   5.571   5.063   0.848  0.1474  0.5999  1.3195
 7078SOL     MW27502   5.520   5.104   0.790  0.5064  0.4082  0.8646
 7079SOL     OW27503   2.858   5.577   0.760  0.0759  0.4317 -0.1381
 7079SOL    HW127504   2.866   5.649   0.698  0.8372  0.4032 -0.0842
 7079SOL    HW227505   2.820   5.505   0.710  1.6399  0.0722 -0.8630
 7079SOL     MW27506   2.854   5.577   0.746  0.3736  0.3819 -0.2239
 7080SOL     OW27507   1.724   1.763   2.508 -0.0767 -0.0365  0.2909
 7080SOL    HW127508   1.635   1.799   2.513  0.0140  0.1178  0.7758
 7080SOL    HW227509   1.780   1.833   2.542  0.3572  0.3169 -1.1169
 7080SOL     MW27510   1.720   1.777   2.513 -0.0094  0.0284  0.1726
 7081SOL     OW27511   3.156   4.159   4.279 -0.6964 -0.3472  0.0755
 7081SOL    HW127512   3.081   4.219   4.289 -0.0975  0.5835 -0.8805
 7081SOL    HW227513   3.183   4.140   4.368 -2.7221 -1.5258  0.4746
 7081SOL     MW27514   3.150   4.165   4.292 -0.8788 -0.3791  0.0048
 7082SOL     OW27515   1.571   4.206   0.577  0.0817 -0.0300  0.0294
 7082SOL    HW127516   1.543   4.162   0.657  0.9211 -2.9753 -1.2087
 7082SOL    HW227517   1.656   4.167   0.557  0.3897  1.4730 -1.7107
 7082SOL     MW27518   1.578   4.195   0.585  0.2285 -0.2146 -0.3518
 7083SOL     OW27519   5.010   1.671   0.424 -0.1325  0.5898  0.2305
 7083SOL    HW127520   5.055   1.705   0.347 -0.4570 -0.4791 -0.4494
 7083SOL    HW227521   5.074   1.678   0.495  0.8919 -0.3367 -0.5888
 7083SOL     MW27522   5.024   1.676   0.423 -0.0429  0.3345  0.0385
 7084SOL     OW27523   0.762   4.217   0.750  0.3341  0.1740 -0.7675
 7084SOL    HW127524   0.779   4.128   0.780  0.2349 -0.5709 -2.8212
 7084SOL    HW227525   0.770   4.212   0.655 -1.3722  1.9838 -1.0448
 7084SOL     MW27526   0.765   4.205   0.741  0.1030  0.3104 -1.0659
 7085SOL     OW27527   1.691   2.921   4.768 -0.3032  0.3211  0.4046
 7085SOL    HW127528   1.771   2.941   4.719 -0.2161  0.5832  0.6480
 7085SOL    HW227529   1.723   2.898   4.856 -0.4459 -0.2850  0.3032
 7085SOL     MW27530   1.706   2.920   4.773 -0.3102  0.2773  0.4230
 7086SOL     OW27531   5.025   5.958   5.587  0.2648  0.4309  0.0745
 7086SOL    HW127532   4.968   5.940   5.513 -0.5069  0.1020  0.7476
 7086SOL    HW227533   4.966   5.979   5.659  0.9206 -1.4174  1.1807
 7086SOL     MW27534   5.010   5.959   5.587  0.2503  0.1521  0.3023
 7087SOL     OW27535   5.724   0.698   2.351 -0.2400  0.0229 -0.4235
 7087SOL    HW127536   5.640   0.688   2.306 -0.4477  2.4203 -0.6298
 7087SOL    HW227537   5.739   0.793   2.354  1.5640 -0.2763  1.2601
 7087SOL     MW27538   5.715   0.709   2.346 -0.0358  0.2915 -0.2344
 7088SOL     OW27539   5.754   2.099   5.551 -0.0608 -0.3358 -0.7517
 7088SOL    HW127540   5.682   2.145   5.509  1.7699  1.8060 -1.6228
 7088SOL    HW227541   5.786   2.039   5.484 -0.1458 -0.3056 -0.8203
 7088SOL     MW27542   5.749   2.097   5.537  0.1631 -0.0577 -0.8721
 7089SOL     OW27543   5.393   2.649   2.264 -0.3969  0.0533 -0.4190
 7089SOL    HW127544   5.445   2.573   2.292  0.8204  0.6409 -1.0575
 7089SOL    HW227545   5.316   2.647   2.320 -0.2791 -1.5491 -0.2894
 7089SOL     MW27546   5.390   2.639   2.275 -0.2260 -0.0765 -0.4840
 7090SOL     OW27547   3.581   3.755   1.176  0.9634 -0.2013 -0.1047
 7090SOL    HW127548   3.653   3.796   1.129  0.8440  0.6748  0.4512
 7090SOL    HW227549   3.587   3.662   1.154  1.0968  0.1528 -1.5755
 7090SOL     MW27550   3.591   3.748   1.167  0.9654 -0.0436 -0.2220
 7091SOL     OW27551   4.551   0.925   0.057 -0.0110  0.5932 -0.3265
 7091SOL    HW127552   4.467   0.928   0.011 -0.1777  0.4051 -0.0372
 7091SOL    HW227553   4.536   0.975   0.137  0.3773  1.2036 -0.6378
 7091SOL     MW27554   4.538   0.932   0.061  0.0176  0.6473 -0.3293
 7092SOL     OW27555   2.430   0.644   0.782  0.0054 -0.3434  0.2296
 7092SOL    HW127556   2.460   0.603   0.862 -0.5288  0.5790  0.9134
 7092SOL    HW227557   2.405   0.733   0.808  1.5667  0.5616 -1.2946
 7092SOL     MW27558   2.430   0.650   0.795  0.1369 -0.1094  0.1220
 7093SOL     OW27559   5.524   3.199   4.381 -0.0487  0.6356 -0.0476
 7093SOL    HW127560   5.508   3.113   4.341  1.4523  0.0040  0.6587
 7093SOL    HW227561   5.524   3.181   4.475 -0.8648  1.6191  0.1355
 7093SOL     MW27562   5.522   3.185   4.388  0.0391  0.6807  0.0663
 7094SOL     OW27563   4.285   4.479   1.499 -0.1038 -0.1497 -0.3001
 7094SOL    HW127564   4.350   4.546   1.479  0.6593 -1.5995 -2.8559
 7094SOL    HW227565   4.230   4.519   1.566  1.9401  2.0153  0.1817
 7094SOL     MW27566   4.287   4.493   1.505  0.2561 -0.0582 -0.5656
 7095SOL     OW27567   3.182   3.463   2.403 -0.4222 -0.3275  0.1476
 7095SOL    HW127568   3.124   3.460   2.479 -1.9523  0.3213 -0.9883
 7095SOL    HW227569   3.165   3.548   2.362  0.5670 -0.5671 -0.7964
 7095SOL     MW27570   3.173   3.474   2.408 -0.4911 -0.2751 -0.1185
 7096SOL     OW27571   2.081   0.850   5.017  0.4129 -0.2422  0.1455
 7096SOL    HW127572   2.004   0.896   5.051 -1.2536 -2.7447 -0.1002
 7096SOL    HW227573   2.057   0.826   4.927  0.2069 -3.6321  1.0246
 7096SOL     MW27574   2.068   0.853   5.010  0.1731 -0.9965  0.2265
 7097SOL     OW27575   4.326   5.068   1.848  0.5137 -0.2664  0.2701
 7097SOL    HW127576   4.383   5.029   1.915  0.2904 -2.7696 -0.9543
 7097SOL    HW227577   4.242   5.023   1.859 -0.8740  2.4759  1.2067
 7097SOL     MW27578   4.323   5.057   1.858  0.3076 -0.2360  0.2332
 7098SOL     OW27579   3.993   3.035   0.073 -0.6721  0.3778 -0.2559
 7098SOL    HW127580   4.052   3.057   0.001 -0.9797  0.1224 -0.5893
 7098SOL    HW227581   3.999   2.940   0.080  0.3485  0.5177  0.9149
 7098SOL     MW27582   4.001   3.026   0.064 -0.5808  0.3631 -0.1487
 7099SOL     OW27583   0.691   4.108   4.447 -0.0201  0.5016 -0.3164
 7099SOL    HW127584   0.732   4.138   4.366 -1.7116 -1.6142 -2.0185
 7099SOL    HW227585   0.726   4.020   4.460 -0.4805  0.4674  0.7408
 7099SOL     MW27586   0.701   4.101   4.439 -0.2956  0.2260 -0.3986
 7100SOL     OW27587   4.415   2.178   5.438 -0.2359  0.4719 -0.0462
 7100SOL    HW127588   4.390   2.229   5.361  4.3335  1.2088 -1.1957
 7100SOL    HW227589   4.412   2.241   5.510 -0.1398  0.9355 -0.4422
 7100SOL     MW27590   4.412   2.193   5.437  0.3619  0.6256 -0.2441
 7101SOL     OW27591   2.208   2.647   3.750  0.0384 -0.3264  0.3278
 7101SOL    HW127592   2.295   2.684   3.740 -0.0552 -0.3791 -0.7223
 7101SOL    HW227593   2.160   2.676   3.673 -1.2272  0.6591  1.4586
 7101SOL     MW27594   2.213   2.655   3.739 -0.1357 -0.2069  0.3381
 7102SOL     OW27595   0.069   4.456   5.029 -0.3882 -0.0969 -1.0293
 7102SOL    HW127596  -0.002   4.517   5.049 -0.1374 -0.5185  1.2396
 7102SOL    HW227597   0.030   4.369   5.038  0.5531 -0.3473  0.8789
 7102SOL     MW27598   0.055   4.453   5.033 -0.2356 -0.1826 -0.4945
 7103SOL     OW27599   5.262   5.796   1.976  0.0866  0.0552  0.7746
 7103SOL    HW127600   5.246   5.865   2.041 -0.8987  1.0639 -0.5328
 7103SOL    HW227601   5.225   5.717   2.016 -0.9974  0.7774  1.2101
 7103SOL     MW27602   5.256   5.795   1.990 -0.1788  0.2761  0.6630
 7104SOL     OW27603   5.175   3.665   1.044 -0.0475  0.7664 -0.3374
 7104SOL    HW127604   5.119   3.605   0.996 -0.6904  1.5477 -0.5718
 7104SOL    HW227605   5.186   3.740   0.986 -2.2630  2.4936  1.4029
 7104SOL     MW27606   5.170   3.667   1.030 -0.4134  1.0874 -0.1446
 7105SOL     OW27607   1.686   1.668   3.740  0.3723 -0.5663 -0.2299
 7105SOL    HW127608   1.767   1.664   3.689  1.3901  0.8952  1.2151
 7105SOL    HW227609   1.636   1.739   3.698  1.6808  1.3794  1.4083
 7105SOL     MW27610   1.690   1.677   3.728  0.6701 -0.1302  0.1645
 7106SOL     OW27611   1.999   4.553   0.217  0.5686  0.2651  0.2636
 7106SOL    HW127612   1.975   4.605   0.293  2.4456  0.8711  0.4631
 7106SOL    HW227613   2.089   4.579   0.197  0.9572 -1.6774 -0.6569
 7106SOL     MW27614   2.008   4.563   0.224  0.8585  0.0935  0.1713
 7107SOL     OW27615   1.225   4.124   0.795  0.0390  0.4100  0.1342
 7107SOL    HW127616   1.319   4.105   0.794 -0.3338 -1.5543 -1.1556
 7107SOL    HW227617   1.184   4.038   0.800 -1.7055  1.1885 -0.5980
 7107SOL     MW27618   1.232   4.110   0.795 -0.2321  0.2584 -0.1246
 7108SOL     OW27619   0.933   2.478   3.316 -0.1605  1.1626  0.4144
 7108SOL    HW127620   0.980   2.483   3.233 -0.2649 -2.6928  0.0277
 7108SOL    HW227621   0.841   2.469   3.292 -0.0370 -1.7129  0.8100
 7108SOL     MW27622   0.928   2.477   3.303 -0.1581  0.3011  0.4153
 7109SOL     OW27623   1.629   3.833   2.760 -0.2933  0.0375 -0.1272
 7109SOL    HW127624   1.583   3.794   2.834 -2.2216 -0.3969 -1.5241
 7109SOL    HW227625   1.674   3.759   2.719  1.5120  0.4224  1.0964
 7109SOL     MW27626   1.629   3.819   2.764 -0.3091  0.0310 -0.1495
 7110SOL     OW27627   0.480   3.674   3.623 -0.0346 -0.2459  0.0666
 7110SOL    HW127628   0.394   3.640   3.648 -0.7037 -0.1033 -1.9642
 7110SOL    HW227629   0.541   3.606   3.653 -0.9811 -1.0924  0.1321
 7110SOL     MW27630   0.477   3.661   3.630 -0.2414 -0.3359 -0.1850
 7111SOL     OW27631   1.351   4.509   3.297 -0.2870 -0.1531 -0.2007
 7111SOL    HW127632   1.430   4.458   3.277 -2.0023 -3.1799  0.4556
 7111SOL    HW227633   1.279   4.446   3.290 -2.3567  1.8452  2.1433
 7111SOL     MW27634   1.352   4.494   3.293 -0.7715 -0.2851  0.1833
 7112SOL     OW27635   4.421   2.388   5.638  0.0096 -0.5296  0.0228
 7112SOL    HW127636   4.412   2.392   5.733 -0.1523 -2.7401  0.1219
 7112SOL    HW227637   4.507   2.426   5.620 -0.6023  1.3606  0.8821
 7112SOL     MW27638   4.431   2.394   5.648 -0.0892 -0.5705  0.1459
 7113SOL     OW27639   3.292   0.720   5.244  0.4252 -0.1976 -0.3957
 7113SOL    HW127640   3.377   0.765   5.242  1.3704 -1.8848  0.1773
 7113SOL    HW227641   3.239   0.765   5.179  0.7304  2.8689  1.3749
 7113SOL     MW27642   3.296   0.732   5.235  0.5853 -0.0211 -0.0954
 7114SOL     OW27643   1.274   4.523   5.788 -0.3940  0.5431 -0.5414
 7114SOL    HW127644   1.322   4.557   5.864 -2.1769  0.7389  0.5248
 7114SOL    HW227645   1.193   4.574   5.786 -1.2932 -0.8934 -1.3521
 7114SOL     MW27646   1.270   4.534   5.797 -0.7373  0.3843 -0.5083
 7115SOL     OW27647   5.246   5.589   3.378  0.1457 -0.4609  0.5352
 7115SOL    HW127648   5.150   5.589   3.379  0.1385  0.1296  0.4457
 7115SOL    HW227649   5.270   5.504   3.341 -0.3854  0.2565 -1.5336
 7115SOL     MW27650   5.237   5.578   3.373  0.0763 -0.2928  0.2587
 7116SOL     OW27651   2.637   5.798   1.952 -0.2990 -0.4304  0.3546
 7116SOL    HW127652   2.636   5.874   2.010  0.1824  1.4002 -1.9974
 7116SOL    HW227653   2.725   5.763   1.960 -0.1686 -0.0591  0.5625
 7116SOL     MW27654   2.648   5.803   1.960 -0.2208 -0.1483  0.0802
 7117SOL     OW27655   4.976   3.599   1.928 -0.0920  0.2809 -0.1390
 7117SOL    HW127656   4.885   3.628   1.924 -0.5808 -1.0579  1.0334
 7117SOL    HW227657   5.026   3.681   1.932 -1.1579  1.0646 -1.7666
 7117SOL     MW27658   4.971   3.614   1.928 -0.2909  0.2098 -0.1974
 7118SOL     OW27659   1.393   4.770   1.001 -0.7372  0.4237 -0.2269
 7118SOL    HW127660   1.438   4.734   0.924 -0.1164 -2.0738  1.2584
 7118SOL    HW227661   1.447   4.845   1.027 -0.8159  1.1534 -2.0261
 7118SOL     MW27662   1.406   4.775   0.994 -0.6677  0.1979 -0.2671
 7119SOL     OW27663   3.805   0.685   0.215 -0.5199 -0.4651  0.5272
 7119SOL    HW127664   3.854   0.618   0.168 -1.5219  0.9275 -2.6568
 7119SOL    HW227665   3.716   0.650   0.222 -0.5405 -0.3699  0.7707
 7119SOL     MW27666   3.800   0.672   0.210 -0.6509 -0.2746  0.1508
 7120SOL     OW27667   1.547   1.038   1.237 -0.3847  0.2507 -0.3705
 7120SOL    HW127668   1.612   1.017   1.303  0.3059  0.7483 -0.8856
 7120SOL    HW227669   1.490   1.103   1.279  2.0349  3.1137 -1.3588
 7120SOL     MW27670   1.548   1.044   1.250  0.0135  0.6808 -0.5630
   6.00000   6.00000   5.83899
