Methane liquid-vapour slab (united-atom)
  500
    1CH4    CH4    1   2.960   0.101   5.719 -0.0830 -0.0230 -0.4832
    2CH4    CH4    2   0.423   0.529   6.414  0.1034 -0.0644  0.3051
    3CH4    CH4    3   0.935   2.639   5.754 -0.2551 -0.2503 -0.1836
    4CH4    CH4    4   0.860   2.888   6.673 -0.1064  0.1470 -0.3784
    5CH4    CH4    5   3.228   1.101   5.310  0.0436  0.1764  0.0136
    6CH4    CH4    6   0.247   2.707   5.640  0.0109  0.0389  0.3649
    7CH4    CH4    7   1.040   3.725   5.286  0.2211  0.1305 -0.0556
    8CH4    CH4    8   0.810   0.673   6.543  0.1580 -0.5742  0.1504
    9CH4    CH4    9   3.017   2.825   3.965 -0.4042 -0.1036  0.1632
   10CH4    CH4   10   1.892   3.434  13.102  0.2908  0.1855  0.1433
   11CH4    CH4   11   0.572   0.059   6.665  0.0360 -0.0087 -0.9242
   12CH4    CH4   12   2.446   1.504   5.695 -0.1175  0.1315  0.6628
   13CH4    CH4   13   0.992   2.774   6.349  0.2640  0.0049  0.2103
   14CH4    CH4   14   0.296   2.164   5.585 -0.4519 -0.0184 -0.2390
   15CH4    CH4   15   0.521   1.109  12.158 -0.0235  0.1426  0.2361
   16CH4    CH4   16   1.667   1.498   6.319  0.1415  0.0438  0.0557
   17CH4    CH4   17   3.039   3.195   5.723 -0.4603 -0.0717  0.4481
   18CH4    CH4   18   0.923   3.221   5.349 -0.3823 -0.2997  0.1186
   19CH4    CH4   19   1.478   3.266   5.922  0.1584  0.0757 -0.0857
   20CH4    CH4   20   0.291   2.211   7.214 -0.1992 -0.0834  0.1554
   21CH4    CH4   21   0.875   1.231   7.110  0.0191 -0.4813  0.1771
   22CH4    CH4   22   3.405   3.379   5.984 -0.1648  0.1739 -0.3819
   23CH4    CH4   23   0.103   1.066   6.454 -0.0092  0.1103 -0.2778
   24CH4    CH4   24   1.455   1.311   5.922  0.0996 -0.5175  0.2212
   25CH4    CH4   25   3.574   1.190   5.001 -0.3050  0.1169  0.4072
   26CH4    CH4   26   0.186   1.866  13.981  0.0849 -0.4928  0.0118
   27CH4    CH4   27   1.427   2.855   6.371  0.0440 -0.0094  0.1517
   28CH4    CH4   28   2.012   2.208   5.917  0.0407 -0.3341 -0.2297
   29CH4    CH4   29   0.841   1.850   5.879 -0.0099  0.1481  0.1194
   30CH4    CH4   30   0.412   1.530   6.434 -0.1801  0.1478  0.0775
   31CH4    CH4   31   0.336   0.415   5.737 -0.3781  0.0014 -0.2585
   32CH4    CH4   32   3.579   1.478   6.491  0.2202 -0.0446 -0.3997
   33CH4    CH4   33   3.008   3.605   2.357  0.2306 -0.1569  0.2037
   34CH4    CH4   34   1.803   3.206   4.854 -0.0923 -0.1089  0.0578
   35CH4    CH4   35   0.876   0.850   4.679  0.2354 -0.0828 -0.0264
   36CH4    CH4   36   2.527   3.276   5.997  0.2322 -0.0964  0.3251
   37CH4    CH4   37   2.160   0.980   3.156 -0.2577 -0.0932  0.0470
   38CH4    CH4   38   1.896   3.043   5.206 -0.1962  0.1058 -0.1690
   39CH4    CH4   39   1.711   3.608   4.375 -0.0902  0.1402 -0.5200
   40CH4    CH4   40   2.201   2.335  12.476  0.1470 -0.3018  0.2352
   41CH4    CH4   41   0.123   0.647   6.024  0.1507  0.2738  0.0465
   42CH4    CH4   42   0.996   2.318   7.141  0.2136 -0.1090  0.0370
   43CH4    CH4   43   0.271   0.415  13.909  0.0592 -0.1378 -0.1289
   44CH4    CH4   44   0.752   1.523   0.248 -0.1944  0.5656  0.7485
   45CH4    CH4   45   0.944   0.255   6.911  0.3691 -0.1983  0.0471
   46CH4    CH4   46   0.582   0.178   5.490 -0.0203  0.3966  0.0531
   47CH4    CH4   47   2.222   1.793   5.562 -0.1104  0.2075 -0.2781
   48CH4    CH4   48   3.635   2.640   6.062  0.2293 -0.0230 -0.1375
   49CH4    CH4   49   1.740   1.313   7.594  0.2194  0.0883 -0.1687
   50CH4    CH4   50   2.681   0.653   5.433 -0.1847 -0.0850 -0.2888
   51CH4    CH4   51   3.245   2.287   6.431  0.2264  0.0036  0.0858
   52CH4    CH4   52   2.587   1.331   6.037  0.0288 -0.0038  0.1613
   53CH4    CH4   53   3.173   2.038   6.884  0.0946  0.0203 -0.1214
   54CH4    CH4   54   0.597   0.048   5.005 -0.2050  0.0301  0.4969
   55CH4    CH4   55   3.603   1.505   5.781 -0.2384  0.3548 -0.3342
   56CH4    CH4   56   1.261   0.350   4.601  0.4348 -0.4353  0.2987
   57CH4    CH4   57   3.742   0.188   7.247 -0.0408  0.1991  0.3477
   58CH4    CH4   58   2.126   2.793   5.497  0.2035  0.2524 -0.4438
   59CH4    CH4   59   2.698   0.891   6.093 -0.0954  0.3312 -0.1535
   60CH4    CH4   60   1.702   1.022   9.553 -0.3478 -0.0828  0.6385
   61CH4    CH4   61   1.656   0.732   9.943  0.0810  0.2119 -0.2976
   62CH4    CH4   62   3.604   3.384   4.935  0.2082 -0.0448 -0.0712
   63CH4    CH4   63   0.147   1.566   5.464  0.0711  0.0293 -0.4522
   64CH4    CH4   64   2.687   2.592   6.492  0.1099 -0.2497 -0.0235
   65CH4    CH4   65   1.445   3.784   5.650  0.2787 -0.0968  0.0467
   66CH4    CH4   66   2.945   3.234   6.518 -0.1628  0.1652 -0.3495
   67CH4    CH4   67   1.044   0.047   5.909  0.3252 -0.1124  0.0131
   68CH4    CH4   68   2.791   1.387   6.381  0.1223  0.0409  0.3484
   69CH4    CH4   69   2.396   1.961   5.014  0.2483 -0.2075 -0.1530
   70CH4    CH4   70   0.932   3.296   5.839  0.4098  0.3171 -0.1980
   71CH4    CH4   71   1.298   0.588   6.187 -0.2071  0.1958  0.1414
   72CH4    CH4   72   0.899   1.430   4.454 -0.2493 -0.5537  0.2679
   73CH4    CH4   73   2.179   2.670   6.357  0.2458 -0.2415 -0.2987
   74CH4    CH4   74   0.965   1.007  12.054  0.1286  0.0360  0.3181
   75CH4    CH4   75   2.974   3.194   5.027  0.0118  0.4289  0.1109
   76CH4    CH4   76   0.565   1.898   4.811 -0.3775 -0.2762  0.2517
   77CH4    CH4   77   1.035   1.711   5.025 -0.0021 -0.3361  0.1043
   78CH4    CH4   78   2.457   2.371   4.874  0.2334  0.1143  0.1268
   79CH4    CH4   79   1.330   1.509   7.887 -0.1704 -0.1824 -0.0480
   80CH4    CH4   80   3.453   3.729   4.682 -0.0930  0.0413 -0.0380
   81CH4    CH4   81   2.283   2.822   5.919 -0.0353  0.4730 -0.0909
   82CH4    CH4   82   2.652   1.027   6.545 -0.1603  0.2620  0.3537
   83CH4    CH4   83   2.585   3.195   5.554  0.2123 -0.2104 -0.0646
   84CH4    CH4   84   0.685   0.673   6.994 -0.1940 -0.1931 -0.3595
   85CH4    CH4   85   1.004   1.310   5.149 -0.3113  0.6629 -0.1141
   86CH4    CH4   86   2.324   2.827   6.702  0.3120  0.4920  0.5070
   87CH4    CH4   87   3.074   3.301   6.903 -0.1342 -0.0352 -0.2791
   88CH4    CH4   88   1.637   0.897   6.405  0.0509  0.1337  0.4123
   89CH4    CH4   89   2.541   3.156   2.720 -0.5838  0.2365  0.0403
   90CH4    CH4   90   3.764   0.514   9.562 -0.1207 -0.6011 -0.0538
   91CH4    CH4   91   2.795   0.522   4.875 -0.0265  0.1042 -0.0117
   92CH4    CH4   92   0.038   2.665   6.358 -0.2341 -0.4377 -0.1010
   93CH4    CH4   93   1.969   2.124   5.441  0.0298 -0.0250  0.2163
   94CH4    CH4   94   2.769   1.274   5.405 -0.4193 -0.4305 -0.4554
   95CH4    CH4   95   0.676   2.549   6.922 -0.0785  0.0927  0.2147
   96CH4    CH4   96   1.778   3.038   5.776  0.0559  0.3722 -0.0240
   97CH4    CH4   97   2.641   3.745   0.179  0.0428  0.0990  0.0547
   98CH4    CH4   98   0.345   2.410   6.776  0.2353 -0.1097  0.0200
   99CH4    CH4   99   0.766   1.067   5.497  0.2886  0.1071 -0.2044
  100CH4    CH4  100   2.919   0.858   5.225 -0.0485 -0.3105 -0.0526
  101CH4    CH4  101   3.181   2.645   6.701 -0.2692  0.2066  0.0205
  102CH4    CH4  102   0.799   0.944   5.076 -0.4474 -0.0654 -0.0728
  103CH4    CH4  103   3.675   2.660   3.615 -0.2771 -0.2236 -0.1623
  104CH4    CH4  104   1.663   3.215   6.238  0.1948 -0.2110 -0.0429
  105CH4    CH4  105   1.134   3.497   6.751 -0.1565  0.2560 -0.2503
  106CH4    CH4  106   0.563   2.495   5.533  0.3722  0.3372 -0.0696
  107CH4    CH4  107   2.094   0.077   6.267 -0.3082  0.3426  0.1159
  108CH4    CH4  108   1.818   0.329   8.386 -0.5981  0.1854  0.0906
  109CH4    CH4  109   3.800   0.922   6.976 -0.2371  0.0570  0.2257
  110CH4    CH4  110   0.219   1.174   1.853  0.1326 -0.1802 -0.5361
  111CH4    CH4  111   2.836   0.106   4.349 -0.5607  0.1426 -0.0552
  112CH4    CH4  112   1.317   2.059   6.207 -0.0570  0.2258 -0.2935
  113CH4    CH4  113   3.504   1.460   7.015 -0.1386  0.1690 -0.0011
  114CH4    CH4  114   1.868   0.686   7.950  0.1214 -0.1046  0.6084
  115CH4    CH4  115   2.726   1.365   8.534 -0.3515  0.2925 -0.1368
  116CH4    CH4  116   3.206   0.639   5.709  0.1483 -0.1162 -0.2118
  117CH4    CH4  117   2.838   1.648   6.001 -0.0128 -0.2571 -0.2513
  118CH4    CH4  118   1.630   0.184   0.633 -0.2996  0.0617 -0.0761
  119CH4    CH4  119   3.558   0.674   6.212 -0.0442 -0.4203  0.0740
  120CH4    CH4  120   1.417   0.088   6.775  0.2940  0.0706 -0.1195
  121CH4    CH4  121   0.344   0.076   5.993 -0.0432 -0.1492  0.0169
  122CH4    CH4  122   0.776   3.472   4.982 -0.2445 -0.2096  0.2554
  123CH4    CH4  123   1.356   3.318   6.482 -0.3446  0.4560  0.0143
  124CH4    CH4  124   3.140   2.572   6.134 -0.2076  0.1651  0.3098
  125CH4    CH4  125   0.988   3.215   6.391  0.4005 -0.1778 -0.0633
  126CH4    CH4  126   3.054   3.486   5.296 -0.3287  0.2270  0.1129
  127CH4    CH4  127   3.054   0.203   4.624 -0.0788  0.1803  0.0268
  128CH4    CH4  128   1.540   0.084   4.786 -0.0750 -0.1341 -0.0656
  129CH4    CH4  129   0.524   1.309   7.267 -0.0498  0.0213  0.3158
  130CH4    CH4  130   2.992   1.914   7.304 -0.2866  0.1411  0.5749
  131CH4    CH4  131   2.081   0.146   0.399  0.1405  0.2520  0.1872
  132CH4    CH4  132   0.616   0.097   4.612  0.1899  0.2424 -0.3580
  133CH4    CH4  133   2.200   3.389   5.204 -0.0985 -0.3424 -0.2678
  134CH4    CH4  134   3.387   2.715   6.381 -0.3258  0.1096 -0.0092
  135CH4    CH4  135   2.827   1.189   4.907 -0.3907  0.3973 -0.5137
  136CH4    CH4  136   2.855   2.053   5.275  0.2788  0.0034  0.1382
  137CH4    CH4  137   3.683   2.748   5.659  0.1803 -0.0543  0.0050
  138CH4    CH4  138   2.738   0.599   3.718 -0.0448  0.0717  0.4201
  139CH4    CH4  139   3.436   3.233   5.587  0.3165 -0.5375  0.0594
  140CH4    CH4  140   0.291   0.828  12.003  0.2119  0.1646  0.2839
  141CH4    CH4  141   2.495   0.988   5.445  0.1064  0.3385 -0.1286
  142CH4    CH4  142   0.647   3.448   6.745 -0.0359 -0.4464 -0.3526
  143CH4    CH4  143   2.232   1.002   6.529  0.0342  0.2481 -0.4000
  144CH4    CH4  144   2.430   2.421   5.796  0.0740 -0.1053  0.3869
  145CH4    CH4  145   3.273   1.310   5.644 -0.2218  0.2421  0.5067
  146CH4    CH4  146   0.752   2.117   7.356  0.2725  0.3511  0.0071
  147CH4    CH4  147   0.076   1.200  12.399 -0.1093 -0.0421  0.0582
  148CH4    CH4  148   1.610   3.696   6.134 -0.0130 -0.8031 -0.2572
  149CH4    CH4  149   0.082   1.438   6.148 -0.0167 -0.3376 -0.0041
  150CH4    CH4  150   0.686   0.487   4.761  0.0089 -0.0197 -0.3514
  151CH4    CH4  151   0.410   0.731   4.981  0.0098 -0.5252 -0.3007
  152CH4    CH4  152   2.025   1.582   6.214  0.1496 -0.5602  0.0274
  153CH4    CH4  153   1.163   0.315  11.660  0.3706  0.2577  0.0393
  154CH4    CH4  154   1.119   1.019   3.177  0.1523 -0.1103  0.0526
  155CH4    CH4  155   2.273   0.310   5.505 -0.4276 -0.0306 -0.0011
  156CH4    CH4  156   3.530   3.752   5.218 -0.0343  0.3310 -0.5258
  157CH4    CH4  157   1.985   1.458   5.644  0.1902 -0.4426  0.0573
  158CH4    CH4  158   0.862   2.260   6.622  0.0073 -0.1902 -0.0975
  159CH4    CH4  159   2.435   2.049   6.021  0.1709  0.0325 -0.4139
  160CH4    CH4  160   3.491   0.538   7.059 -0.1431 -0.0491  0.1500
  161CH4    CH4  161   1.373   0.860   5.635 -0.1967  0.3051  0.1553
  162CH4    CH4  162   1.249   1.893   6.798  0.2736  0.3635  0.0829
  163CH4    CH4  163   1.064   2.398   5.437 -0.1112 -0.1790  0.3381
  164CH4    CH4  164   1.189   3.419   4.926  0.2765  0.0112 -0.1815
  165CH4    CH4  165   3.744   0.289   6.252 -0.3487 -0.4953 -0.2865
  166CH4    CH4  166   3.042   2.571  12.358 -0.0285 -0.2898  0.0354
  167CH4    CH4  167   0.492   2.600   6.330 -0.3309 -0.3578  0.5367
  168CH4    CH4  168   1.995   0.884   6.246  0.0507 -0.0767 -0.0854
  169CH4    CH4  169   3.447   0.982   5.632  0.1024 -0.6557 -0.0700
  170CH4    CH4  170   3.033   0.640   4.586 -0.1111  0.1755 -0.1713
  171CH4    CH4  171   2.713   2.414   1.972 -0.0293 -0.0700 -0.2325
  172CH4    CH4  172   2.819   3.493   6.268  0.4203 -0.0378 -0.2643
  173CH4    CH4  173   1.685   2.210   6.704  0.0806  0.1046 -0.2434
  174CH4    CH4  174   0.429   1.782   5.760 -0.2397 -0.0476 -0.1429
  175CH4    CH4  175   1.620   1.717   5.695 -0.7454  0.0402  0.2514
  176CH4    CH4  176   0.091   2.441   5.889 -0.1142  0.2281 -0.1291
  177CH4    CH4  177   3.642   3.771   6.056  0.0781 -0.1706  0.4237
  178CH4    CH4  178   1.872   3.355   6.538 -0.0948 -0.5070  0.5122
  179CH4    CH4  179   3.182   3.576   6.470 -0.0058  0.2309  0.0946
  180CH4    CH4  180   3.110   0.671  10.730  0.4660  0.0250  0.4963
  181CH4    CH4  181   2.026   0.217   5.874  0.1095 -0.1088  0.1611
  182CH4    CH4  182   1.210   2.603   6.640  0.0176  0.3264 -0.2140
  183CH4    CH4  183   3.470   2.294   6.704  0.2154  0.1103 -0.2593
  184CH4    CH4  184   0.598   2.963   5.529  0.3690  0.2294 -0.2142
  185CH4    CH4  185   3.369   3.198   5.232 -0.1646  0.0092  0.1805
  186CH4    CH4  186   2.584   2.637   4.583  0.0805  0.3498  0.0022
  187CH4    CH4  187   1.452   0.083  10.070 -0.2174  0.3570 -0.0095
  188CH4    CH4  188   0.390   3.722   6.349  0.2737 -0.1651 -0.0264
  189CH4    CH4  189   2.660   0.109   6.264  0.0194 -0.0665  0.2870
  190CH4    CH4  190   1.776   0.568   6.185 -0.0313  0.1771  0.1092
  191CH4    CH4  191   0.869   1.398  11.382  0.3874  0.5196  0.5995
  192CH4    CH4  192   1.688   3.339   7.982 -0.3495  0.2095  0.3293
  193CH4    CH4  193   2.685   2.730   0.591 -0.0971 -0.3420 -0.3407
  194CH4    CH4  194   1.435   0.999   7.321  0.4867 -0.0972  0.3553
  195CH4    CH4  195   3.063   1.440   5.131 -0.3349 -0.4171  0.2647
  196CH4    CH4  196   0.480   3.094   7.358  0.0598 -0.5056 -0.5473
  197CH4    CH4  197   2.560   3.173   6.623 -0.1146 -0.1301  0.3935
  198CH4    CH4  198   3.127   1.909   6.392  0.0095  0.0632  0.0299
  199CH4    CH4  199   0.089   2.952   5.230 -0.2224 -0.2644 -0.1730
  200CH4    CH4  200   0.844   2.486   6.094 -0.2897  0.1358  0.3139
  201CH4    CH4  201   2.759   3.539   5.798  0.0371  0.2766  0.1062
  202CH4    CH4  202   0.435   2.228   7.796 -0.4232 -0.3024  0.2492
  203CH4    CH4  203   0.316   0.774   4.566  0.0649  0.0455  0.0788
  204CH4    CH4  204   0.502   2.333  12.179 -0.3889 -0.0058 -0.1077
  205CH4    CH4  205   1.430   3.270   4.159  0.3813  0.1086 -0.1943
  206CH4    CH4  206   3.059   3.624   4.692 -0.3364 -0.0647  0.2976
  207CH4    CH4  207   3.327   3.679   5.747 -0.6124 -0.1398 -0.1662
  208CH4    CH4  208   1.050   0.310   5.509 -0.0814 -0.4045  0.2230
  209CH4    CH4  209   0.845   3.636   7.068 -0.0613 -0.0325  0.2554
  210CH4    CH4  210   2.371   0.138   9.829 -0.3493  0.0617 -0.0913
  211CH4    CH4  211   3.779   3.005   6.029  0.2713  0.3582  0.6021
  212CH4    CH4  212   0.846   2.174   5.629  0.5531 -0.3289  0.4409
  213CH4    CH4  213   1.938   1.832   5.889  0.2781 -0.0006  0.0681
  214CH4    CH4  214   3.135   0.416   4.212  0.0418 -0.3933 -0.4587
  215CH4    CH4  215   2.107   3.038   7.082  0.0943 -0.1192 -0.2831
  216CH4    CH4  216   0.114   3.065   5.660 -0.1615 -0.4290 -0.1621
  217CH4    CH4  217   0.967   0.278   4.118 -0.1861  0.0889  0.0150
  218CH4    CH4  218   0.227   0.519   7.068  0.0443  0.2880  0.4653
  219CH4    CH4  219   2.077   0.015  10.149 -0.0406 -0.4751 -0.2464
  220CH4    CH4  220   2.842   1.744   4.951  0.0094 -0.0367 -0.2087
  221CH4    CH4  221   0.977   1.316   6.412 -0.1232 -0.2666  0.3031
  222CH4    CH4  222   0.132   0.991   5.725  0.2903  0.1110 -0.2587
  223CH4    CH4  223   0.775   1.215   4.797 -0.2633 -0.0247  0.1778
  224CH4    CH4  224   1.294   1.671   4.558 -0.0891 -0.5570  0.5447
  225CH4    CH4  225   0.702   1.644   7.132  0.1077 -0.3302 -0.1398
  226CH4    CH4  226   3.632   0.360   4.985  0.0445  0.2522 -0.1706
  227CH4    CH4  227   3.665   2.243   6.365 -0.1622 -0.1237 -0.2401
  228CH4    CH4  228   2.798   3.664   6.747 -0.2805  0.1410 -0.3669
  229CH4    CH4  229   1.737   0.036   1.086 -0.1195  0.1074 -0.0216
  230CH4    CH4  230   0.960   1.105   6.741  0.3173 -0.1758 -0.2636
  231CH4    CH4  231   0.300   0.134   1.058  0.2945  0.4650 -0.1953
  232CH4    CH4  232   0.192   3.310   6.321  0.1978 -0.2848  0.0599
  233CH4    CH4  233   2.101   0.330  12.207 -0.0299 -0.0304  0.1874
  234CH4    CH4  234   1.235   3.002   2.313  0.4691 -0.1561  0.3883
  235CH4    CH4  235   1.856   3.380   5.540 -0.1718  0.4583 -0.0154
  236CH4    CH4  236   1.931   1.111   5.931  0.1254  0.2962  0.1088
  237CH4    CH4  237   1.323   0.656   4.870  0.1197 -0.1374 -0.1388
  238CH4    CH4  238   1.843   3.405   5.973 -0.2194 -0.6370 -0.1181
  239CH4    CH4  239   3.276   2.165   5.564  0.2079  0.3833  0.0803
  240CH4    CH4  240   2.428   1.274   4.978 -0.1406  0.3662 -0.0540
  241CH4    CH4  241   2.253   1.285   5.393 -0.0608  0.0256  0.1099
  242CH4    CH4  242   0.115   1.822  10.664  0.3543  0.1097  0.2117
  243CH4    CH4  243   1.773   0.792   4.986  0.0361  0.5874 -0.0629
  244CH4    CH4  244   1.389   1.219   6.430  0.3125 -0.4119  0.0566
  245CH4    CH4  245   2.317   0.252  13.214 -0.2745 -0.0387  0.0498
  246CH4    CH4  246   1.502   2.049   5.858 -0.5712 -0.1643 -0.4943
  247CH4    CH4  247   0.288   2.256   5.168 -0.0137  0.0638 -0.3013
  248CH4    CH4  248   0.670   1.439   5.980 -0.0572  0.0857  0.3669
  249CH4    CH4  249   2.462   1.385  13.581 -0.1716 -0.0231  0.2329
  250CH4    CH4  250   3.591   3.163   6.491 -0.0837 -0.0449 -0.1376
  251CH4    CH4  251   2.692   1.923   5.697 -0.2882  0.3793 -0.0043
  252CH4    CH4  252   0.773   1.337   1.949  0.1103  0.1558  0.3891
  253CH4    CH4  253   1.327   3.547   9.961  0.1177  0.0485  0.1936
  254CH4    CH4  254   2.677   0.685   3.203  0.0737  0.7926  0.0873
  255CH4    CH4  255   0.686   0.232   5.901  0.2808 -0.2667  0.3156
  256CH4    CH4  256   2.929   2.237   5.893  0.2129 -0.2599  0.3197
  257CH4    CH4  257   0.441   2.544   5.920 -0.4664  0.0376  0.1792
  258CH4    CH4  258   0.573   1.804   6.795  0.4062 -0.0875 -0.1474
  259CH4    CH4  259   2.746   0.283   5.298 -0.2469  0.3203 -0.2951
  260CH4    CH4  260   1.410   0.498  13.280  0.0332 -0.2257  0.0979
  261CH4    CH4  261   3.637   2.312   5.530  0.2714 -0.2700  0.1095
  262CH4    CH4  262   1.624   1.778   6.073  0.1895 -0.0636  0.4219
  263CH4    CH4  263   0.779   2.509   4.133 -0.0777 -0.0660 -0.0377
  264CH4    CH4  264   2.000   0.171  13.651 -0.2561 -0.1530  0.1878
  265CH4    CH4  265   3.143   2.929  12.733 -0.0353 -0.1073  0.0169
  266CH4    CH4  266   1.192   2.986   5.735  0.2541  0.2105 -0.4021
  267CH4    CH4  267   2.208   3.275   6.797 -0.0289 -0.0471 -0.0936
  268CH4    CH4  268   2.122   0.604   9.829 -0.2082  0.6393 -0.3744
  269CH4    CH4  269   0.181   1.189   5.143 -0.2977 -0.2654 -0.0720
  270CH4    CH4  270   2.413   3.083   4.246  0.3465  0.5627  0.1978
  271CH4    CH4  271   2.074   3.407   0.808  0.1195 -0.3271 -0.1199
  272CH4    CH4  272   1.697   1.367   6.702 -0.1702  0.0334 -0.0352
  273CH4    CH4  273   3.123   0.513   5.340 -0.3545  0.2665  0.0913
  274CH4    CH4  274   0.378   3.249   6.988 -0.0452  0.4735  0.1006
  275CH4    CH4  275   0.069   0.275   5.364 -0.0398  0.3017 -0.1472
  276CH4    CH4  276   1.204   3.075   6.155  0.1221 -0.5231 -0.1067
  277CH4    CH4  277   1.955   1.139   7.975  0.4273 -0.0054 -0.4390
  278CH4    CH4  278   2.937   1.068   5.842  0.2302 -0.4388  0.1532
  279CH4    CH4  279   3.386   1.643   6.137 -0.1183  0.6260  0.1989
  280CH4    CH4  280   1.748   0.492   5.730  0.4035 -0.2306  0.0525
  281CH4    CH4  281   3.036   0.240  12.982 -0.1482 -0.2366 -0.0433
  282CH4    CH4  282   2.146   1.573   5.160 -0.3742  0.2766  0.4908
  283CH4    CH4  283   2.738   0.015  10.139  0.3573 -0.3064  0.1085
  284CH4    CH4  284   1.518   0.126   3.605  0.4374  0.1494  0.0056
  285CH4    CH4  285   0.864   0.337   5.148  0.1076 -0.0669 -0.0990
  286CH4    CH4  286   3.522   1.085   6.347  0.3618  0.1369 -0.1903
  287CH4    CH4  287   2.569   2.725   5.223 -0.0261  0.2444  0.0645
  288CH4    CH4  288   3.491   3.165  12.795 -0.2769 -0.1801 -0.3445
  289CH4    CH4  289   0.019   1.957   1.013  0.3809 -0.1822  0.1582
  290CH4    CH4  290   2.796   2.185   6.249  0.0303  0.3587  0.2827
  291CH4    CH4  291   0.641   0.611   5.442 -0.0442 -0.1626  0.0416
  292CH4    CH4  292   1.232   3.469   5.618 -0.2712  0.2674 -0.2952
  293CH4    CH4  293   0.484   1.849   8.167  0.2574  0.2810  0.2469
  294CH4    CH4  294   2.750   1.043   7.086  0.2818  0.5062  0.1183
  295CH4    CH4  295   1.645   2.224   6.233 -0.2154  0.1226  0.0932
  296CH4    CH4  296   1.244   3.578   6.042 -0.0050 -0.2620 -0.5324
  297CH4    CH4  297   1.234   0.078  12.873 -0.2293  0.0233 -0.0252
  298CH4    CH4  298   2.418   3.685   9.552 -0.0925  0.2706 -0.0455
  299CH4    CH4  299   0.231   1.365   5.814 -0.1536 -0.2310 -0.3032
  300CH4    CH4  300   0.072   1.193   3.799  0.2672  0.1983 -0.0523
  301CH4    CH4  301   0.073   1.846   6.029 -0.2688 -0.3164  0.3284
  302CH4    CH4  302   0.454   3.558  10.661 -0.1332  0.0376  0.3479
  303CH4    CH4  303   2.309   2.426   6.756 -0.0020 -0.2660 -0.7275
  304CH4    CH4  304   0.070   0.132   6.657 -0.1177 -0.2392 -0.0032
  305CH4    CH4  305   1.172   2.322   5.900 -0.1444 -0.0213 -0.0155
  306CH4    CH4  306   1.062   1.901   6.450  0.3196 -0.2371 -0.0472
  307CH4    CH4  307   0.397   0.115   7.326  0.3040  0.0793  0.0349
  308CH4    CH4  308   1.410   0.686   9.536  0.1264  0.1140  0.1156
  309CH4    CH4  309   1.452   0.411   5.219  0.0857 -0.3082  0.3488
  310CH4    CH4  310   3.514   0.517   4.545  0.0242 -0.1218  0.3258
  311CH4    CH4  311   2.409   1.893   6.453 -0.1288 -0.6151  0.4941
  312CH4    CH4  312   1.986   3.670  13.972 -0.0253  0.1127  0.1596
  313CH4    CH4  313   0.895   2.135   6.204  0.0323  0.5106  0.0494
  314CH4    CH4  314   3.344   0.690   5.013  0.0309  0.0290 -0.4745
  315CH4    CH4  315   1.122   0.601   6.805  0.1329 -0.2631  0.1934
  316CH4    CH4  316   1.875   0.303   5.064  0.1680  0.2776 -0.0622
  317CH4    CH4  317   2.968   1.573   5.579 -0.1744 -0.1687 -0.3609
  318CH4    CH4  318   2.039   2.010   6.237 -0.5790 -0.1031  0.4869
  319CH4    CH4  319   0.484   1.448   5.037  0.2491  0.3006 -0.0696
  320CH4    CH4  320   0.012   2.969   8.488  0.3039 -0.0829 -0.2177
  321CH4    CH4  321   3.182   0.847   6.227  0.0402  0.2159  0.0482
  322CH4    CH4  322   2.901   2.803   2.359  0.0048  0.2766  0.1215
  323CH4    CH4  323   1.164   0.863   6.433 -0.3312 -0.4160  0.3233
  324CH4    CH4  324   2.470   2.037   5.368  0.6960 -0.2825 -0.0959
  325CH4    CH4  325   2.778   2.588  11.130  0.3292  0.1023 -0.1427
  326CH4    CH4  326   0.588   3.595   5.975  0.1738  0.2384  0.0263
  327CH4    CH4  327   3.088   1.010   4.357 -0.0988  0.1188 -0.0580
  328CH4    CH4  328   3.156   2.839   5.369 -0.2371 -0.1556  0.0497
  329CH4    CH4  329   2.759   3.214   4.588  0.0595  0.1557 -0.2631
  330CH4    CH4  330   2.001   1.883   6.717 -0.2172 -0.1069 -0.1358
  331CH4    CH4  331   2.060   0.084   4.719 -0.2691 -0.1756 -0.1680
  332CH4    CH4  332   2.111   2.375   2.925 -0.0663  0.0454  0.4221
  333CH4    CH4  333   1.928   0.841  10.192 -0.0304 -0.4709 -0.0497
  334CH4    CH4  334   0.702   3.479   6.322 -0.0933 -0.0257 -0.0051
  335CH4    CH4  335   0.865   1.302   9.859  0.3703  0.1403 -0.2989
  336CH4    CH4  336   2.730   2.579   6.034  0.5036 -0.1320  0.1759
  337CH4    CH4  337   1.461   1.067   5.142 -0.4009 -0.2221 -0.4131
  338CH4    CH4  338   0.297   1.168   2.473  0.2977 -0.0794 -0.2687
  339CH4    CH4  339   2.787   1.813   6.397 -0.3811  0.2460 -0.3003
  340CH4    CH4  340   0.252   3.733   5.536  0.0417 -0.1827 -0.1648
  341CH4    CH4  341   2.463   0.279   4.566 -0.1537 -0.2022  0.3141
  342CH4    CH4  342   1.192   2.422   6.294  0.0818 -0.3336  0.3011
  343CH4    CH4  343   0.390   1.140   6.108  0.2373  0.1994  0.2130
  344CH4    CH4  344   0.751   2.279   5.149  0.4308  0.0636  0.3599
  345CH4    CH4  345   1.118   2.054   5.242  0.3752  0.1074  0.1997
  346CH4    CH4  346   2.250   1.210   6.174  0.3434  0.1575 -0.0495
  347CH4    CH4  347   1.169   1.385   8.238  0.0213 -0.0389 -0.3817
  348CH4    CH4  348   3.038   1.909  12.170 -0.3033  0.2255 -0.2057
  349CH4    CH4  349   1.299   1.619  12.055 -0.4440  0.2196  0.0278
  350CH4    CH4  350   3.783   0.703   4.891 -0.0286 -0.2898 -0.1087
  351CH4    CH4  351   1.386   0.939   6.796  0.2466 -0.0018 -0.0982
  352CH4    CH4  352   0.531   1.432   5.575  0.2960 -0.3343 -0.3771
  353CH4    CH4  353   2.216   3.093   4.693 -0.0612  0.1786 -0.1588
  354CH4    CH4  354   0.514   0.239   7.009  0.1683 -0.1732  0.0404
  355CH4    CH4  355   3.557   1.803   4.831  0.0679  0.0792 -0.2373
  356CH4    CH4  356   1.289   2.029   4.850  0.2981  0.5539 -0.2264
  357CH4    CH4  357   2.375   0.976   5.886  0.0299  0.0651  0.0765
  358CH4    CH4  358   3.134   1.726  13.299 -0.1135  0.5674  0.0836
  359CH4    CH4  359   2.527   1.617   5.354  0.5553 -0.0881  0.3966
  360CH4    CH4  360   1.995   2.716   2.822  0.1195 -0.0364 -0.4471
  361CH4    CH4  361   2.712   0.680   4.105 -0.2012 -0.1469 -0.3760
  362CH4    CH4  362   1.226   1.421   6.714  0.1748 -0.0246 -0.2266
  363CH4    CH4  363   3.650   1.476   4.342  0.0416 -0.3397 -0.2046
  364CH4    CH4  364   0.838   2.957   6.057  0.2091 -0.3468 -0.0109
  365CH4    CH4  365   2.657   3.602   5.334  0.1178  0.4298  0.0981
  366CH4    CH4  366   0.591   0.677   5.943  0.1921 -0.4756 -0.4684
  367CH4    CH4  367   1.306   0.116   6.262 -0.2679  0.1468  0.1063
  368CH4    CH4  368   0.136   2.964   6.557  0.1837  0.5723 -0.0388
  369CH4    CH4  369   2.288   1.616   4.064  0.0924 -0.4060 -0.1347
  370CH4    CH4  370   3.313   0.285   6.307  0.1117 -0.1364 -0.3098
  371CH4    CH4  371   2.980   0.171   2.235 -0.2032  0.0889 -0.3254
  372CH4    CH4  372   3.729   2.318   7.058 -0.1466 -0.4267  0.2074
  373CH4    CH4  373   1.198   2.755   8.109 -0.2634  0.1971 -0.0258
  374CH4    CH4  374   1.709   2.829  11.999  0.1326  0.6751 -0.5037
  375CH4    CH4  375   0.460   2.193   6.099 -0.0673  0.2596 -0.5176
  376CH4    CH4  376   1.587   0.905  12.909 -0.1414 -0.0531 -0.3059
  377CH4    CH4  377   0.282   0.339   4.809  0.2826 -0.0242  0.3651
  378CH4    CH4  378   3.092   1.904   6.007  0.4860 -0.1068 -0.4200
  379CH4    CH4  379   2.534   1.048   3.291  0.1621  0.0927  0.1854
  380CH4    CH4  380   2.900   2.310   3.117 -0.0850 -0.3600 -0.0573
  381CH4    CH4  381   2.644   2.192  12.192 -0.1658 -0.0499 -0.1149
  382CH4    CH4  382   0.570   3.067   6.555 -0.0807  0.0034  0.4185
  383CH4    CH4  383   1.898   2.932   6.462 -0.0159  0.0358 -0.0136
  384CH4    CH4  384   1.043   1.895   7.173  0.2774  0.3173  0.4251
  385CH4    CH4  385   3.245   1.193   3.000  0.0187 -0.1830 -0.2701
  386CH4    CH4  386   1.059   3.396  10.186 -0.1480  0.0843  0.1834
  387CH4    CH4  387   1.478   3.196   5.512 -0.2638 -0.2970 -0.0666
  388CH4    CH4  388   2.692   3.367   2.361  0.1219  0.2240  0.1999
  389CH4    CH4  389   1.123   1.154   5.734  0.0844 -0.1995  0.0014
  390CH4    CH4  390   1.631   3.014   2.675 -0.5478  0.6413  0.3091
  391CH4    CH4  391   2.115   1.490   6.630 -0.1877 -0.0919  0.1482
  392CH4    CH4  392   0.161   0.005   5.084  0.0557 -0.3360  0.5114
  393CH4    CH4  393   0.401   1.487   2.075 -0.4680 -0.0031  0.6545
  394CH4    CH4  394   0.166   2.983   8.886  0.1808  0.0418  0.1323
  395CH4    CH4  395   2.190   3.216   6.330  0.2630  0.0960  0.2678
  396CH4    CH4  396   1.645   2.442   5.890 -0.2718 -0.6580 -0.0112
  397CH4    CH4  397   3.396   3.427   7.109 -0.0561 -0.0536  0.0077
  398CH4    CH4  398   3.556   2.133   5.895 -0.5173  0.0861 -0.1314
  399CH4    CH4  399   2.181   0.400   2.108  0.1458 -0.0054  0.1356
  400CH4    CH4  400   1.097   1.440   8.760  0.3715  0.3874 -0.0319
  401CH4    CH4  401   2.133   3.771   5.144 -0.1512 -0.0283  0.0612
  402CH4    CH4  402   1.620   3.562   0.746 -0.1780  0.2090 -0.4353
  403CH4    CH4  403   1.968   2.375   6.501  0.3177  0.0436  0.1769
  404CH4    CH4  404   1.178   1.517   6.107  0.3034 -0.1025  0.0885
  405CH4    CH4  405   0.597   1.945   5.317 -0.3860  0.5287 -0.3151
  406CH4    CH4  406   2.246   0.530   5.848  0.0863 -0.2163  0.0679
  407CH4    CH4  407   1.252   0.162   5.062  0.4480  0.2831  0.0318
  408CH4    CH4  408   0.179   3.782   7.002 -0.1909 -0.4227  0.0681
  409CH4    CH4  409   0.106   1.857   8.167 -0.0188 -0.0652 -0.0769
  410CH4    CH4  410   0.396   1.503   6.966  0.2918 -0.2091 -0.1028
  411CH4    CH4  411   2.578   2.875   3.806 -0.3518  0.4441 -0.1305
  412CH4    CH4  412   0.414   2.829   6.819  0.0964  0.0754 -0.0246
  413CH4    CH4  413   2.413   0.614   6.293  0.2099  0.5032 -0.3078
  414CH4    CH4  414   0.821   3.458   4.267 -0.3446 -0.0243  0.5115
  415CH4    CH4  415   2.559   2.895   6.192 -0.0405 -0.1944 -0.3109
  416CH4    CH4  416   3.148   0.166   5.095 -0.1104  0.3680 -0.0725
  417CH4    CH4  417   2.024   3.782   5.516 -0.6103  0.0594 -0.0673
  418CH4    CH4  418   1.617   2.624   0.501  0.0749  0.3012 -0.1692
  419CH4    CH4  419   3.391   2.930   5.837  0.0915  0.1304  0.2478
  420CH4    CH4  420   0.061   2.136   6.679  0.1455 -0.1757  0.0262
  421CH4    CH4  421   2.478   0.822   4.829  0.0294  0.3144 -0.0389
  422CH4    CH4  422   0.865   2.899   4.537 -0.2794  0.2862 -0.2494
  423CH4    CH4  423   1.155   1.502   7.193  0.2878  0.2728  0.1107
  424CH4    CH4  424   0.796   1.475   6.807  0.0466 -0.1522  0.0263
  425CH4    CH4  425   2.609   2.818   5.660  0.7091  0.3585  0.1200
  426CH4    CH4  426   0.001   2.577   6.749 -0.4332 -0.4033 -0.6646
  427CH4    CH4  427   3.028   2.755   8.111  0.0630 -0.0126 -0.0507
  428CH4    CH4  428   2.317   0.773   6.850 -0.1018 -0.1311  0.4102
  429CH4    CH4  429   1.362   2.825   5.363  0.4481  0.1038 -0.1894
  430CH4    CH4  430   0.226   0.452   4.375  0.0568 -0.3096 -0.2512
  431CH4    CH4  431   1.859   2.619   6.135  0.1949 -0.5763  0.1013
  432CH4    CH4  432   1.043   3.678   6.380  0.1336  0.0700  0.0917
  433CH4    CH4  433   1.689   3.759   6.540 -0.0549 -0.4953  0.0286
  434CH4    CH4  434   2.458   0.411   4.990  0.1172  0.3907  0.1765
  435CH4    CH4  435   0.460   1.313  13.305  0.1330  0.1382 -0.1812
  436CH4    CH4  436   1.401   1.718   6.375  0.0714 -0.3046  0.0480
  437CH4    CH4  437   2.738   3.622   4.937 -0.0444 -0.0949  0.1923
  438CH4    CH4  438   3.639   1.258   5.418 -0.0579  0.0536 -0.1388
  439CH4    CH4  439   3.668   2.973   6.863 -0.5846  0.0282  0.0689
  440CH4    CH4  440   3.268   2.408   5.227  0.0615  0.4849  0.0171
  441CH4    CH4  441   3.154   3.484   9.904  0.0785  0.1727 -0.1015
  442CH4    CH4  442   0.803   3.682   5.600 -0.2851  0.3098  0.2017
  443CH4    CH4  443   0.444   1.963   1.297 -0.4829  0.0134 -0.0360
  444CH4    CH4  444   2.675   0.306   6.962 -0.0871  0.2298 -0.3303
  445CH4    CH4  445   1.270   2.701   6.007  0.0374 -0.2176 -0.5003
  446CH4    CH4  446   2.357   2.294   6.305 -0.4970 -0.1629 -0.2103
  447CH4    CH4  447   0.346   3.763   2.269  0.1402  0.4494  0.1678
  448CH4    CH4  448   2.796   2.168   6.620  0.1078 -0.1264  0.1520
  449CH4    CH4  449   2.405   1.480   6.375  0.1619 -0.0958 -0.1480
  450CH4    CH4  450   1.850   0.735   5.453  0.0890 -0.5648  0.3834
  451CH4    CH4  451   0.383   2.942   6.093  0.0162 -0.3720  0.5130
  452CH4    CH4  452   0.018   3.370  12.952  0.0151 -0.0551 -0.0592
  453CH4    CH4  453   2.123   0.528   4.828  0.2066  0.3508  0.2831
  454CH4    CH4  454   0.500   3.426   4.585 -0.2134  0.2385 -0.2131
  455CH4    CH4  455   2.305   0.067  13.918  0.1229  0.1902 -0.8445
  456CH4    CH4  456   1.601   0.795   5.920 -0.2011  0.1745  0.1507
  457CH4    CH4  457   0.553   3.302   2.854 -0.4242  0.1819 -0.2207
  458CH4    CH4  458   1.868   1.186   6.415 -0.2667  0.2663 -0.1730
  459CH4    CH4  459   3.559   0.917   5.255  0.1732 -0.0349  0.0905
  460CH4    CH4  460   2.790   3.315  12.188  0.3041  0.0054  0.4042
  461CH4    CH4  461   0.180   3.479   6.711 -0.2452 -0.6558  0.1826
  462CH4    CH4  462   0.620   0.851   3.133 -0.0524  0.0280 -0.0198
  463CH4    CH4  463   0.428   0.412   5.185 -0.2228 -0.0452 -0.1087
  464CH4    CH4  464   0.464   1.021   6.531 -0.1658 -0.1505  0.1935
  465CH4    CH4  465   1.174   0.734   5.234  0.3069 -0.0378  0.3310
  466CH4    CH4  466   3.500   1.872   6.585  0.3927 -0.1654 -0.0852
  467CH4    CH4  467   3.300   1.710   5.706  0.1389  0.3282  0.0547
  468CH4    CH4  468   2.332   3.568   4.777  0.0577 -0.0409  0.2481
  469CH4    CH4  469   3.788   3.377   5.309 -0.2670 -0.2097  0.4252
  470CH4    CH4  470   0.507   3.220   5.791 -0.0743  0.2117 -0.0197
  471CH4    CH4  471   3.232   1.621   6.725  0.2560  0.0653  0.0510
  472CH4    CH4  472   2.935   2.486   5.496  0.1463  0.5971  0.0597
  473CH4    CH4  473   1.274   1.039   6.100  0.0388 -0.2497 -0.3943
  474CH4    CH4  474   2.825   1.751   6.763  0.0598  0.0868 -0.8521
  475CH4    CH4  475   1.633   2.568   6.536  0.0169  0.1895 -0.0485
  476CH4    CH4  476   0.946   2.744   5.181  0.1944  0.3815 -0.2265
  477CH4    CH4  477   2.454   2.448   1.682  0.1065  0.0894  0.1423
  478CH4    CH4  478   3.418   3.777   2.362  0.0883 -0.1558  0.4018
  479CH4    CH4  479   0.799   1.845   7.869  0.3503 -0.0234  0.2486
  480CH4    CH4  480   0.154   3.458   5.902  0.1156  0.1584  0.2500
  481CH4    CH4  481   0.156   0.775   5.408 -0.5431 -0.0703  0.1759
  482CH4    CH4  482   1.360   0.625   4.194  0.1916  0.0760 -0.2732
  483CH4    CH4  483   0.429   3.327   5.403  0.5666  0.0332  0.2393
  484CH4    CH4  484   2.484   3.255   4.973  0.2183 -0.4805  0.1451
  485CH4    CH4  485   0.367   3.477   4.979  0.6018 -0.1166  0.3096
  486CH4    CH4  486   0.978   0.320   6.424  0.1510  0.1138 -0.0111
  487CH4    CH4  487   3.733   1.844   5.572 -0.3899 -0.1485 -0.0713
  488CH4    CH4  488   0.000   1.539   5.122 -0.3958 -0.2460  0.0451
  489CH4    CH4  489   0.862   0.976   6.053  0.0503 -0.5903 -0.4202
  490CH4    CH4  490   2.722   0.926   8.374  0.2715 -0.2546 -0.2929
  491CH4    CH4  491   2.149   3.227   7.425 -0.2744 -0.1204 -0.2375
  492CH4    CH4  492   1.038   0.650   5.769 -0.1369  0.3088 -0.1602
  493CH4    CH4  493   2.014   1.928   3.922  0.0291  0.1429  0.3150
  494CH4    CH4  494   2.930   3.047   6.088 -0.1762  0.0994 -0.4334
  495CH4    CH4  495   2.375   0.020   5.969  0.1883  0.2450 -0.4690
  496CH4    CH4  496   1.631   3.566   5.262 -0.0776  0.0983 -0.0650
  497CH4    CH4  497   3.739   1.704   6.805  0.3417  0.0061 -0.1421
  498CH4    CH4  498   1.642   2.713   5.572 -0.4507 -0.2603 -0.0515
  499CH4    CH4  499   1.367   0.316   5.878 -0.3467  0.4503  0.0747
  500CH4    CH4  500   2.210   2.825   1.999 -0.0428 -0.1487 -0.7152
   3.80000   3.80000  14.00000
