; Gromacs awesome itp file
; File written by MHolmboe (michael.holmboe@umu.se)

[ moleculetype ]
; molname   nrexcl
MMT1       1

[ atoms ]
; id   attype  resnr resname  atname   cgnr charge      mass
1       Al       1     MMT1      Al       1	1.575000	26.981540
2       Si       1     MMT1      Si       2	2.100000	28.085380
3       Si       1     MMT1      Si       3	2.100000	28.085380
4       Op       1     MMT1      Op       4	-1.050000	15.999410
5       Op       1     MMT1      Op       5	-1.050000	15.999410
6     Ohmg       1     MMT1    Ohmg       6	-1.080833	15.999410
7       Ob       1     MMT1      Ob       7	-1.050000	15.999410
8       Ob       1     MMT1      Ob       8	-1.050000	15.999410
9       Ob       1     MMT1      Ob       9	-1.050000	15.999410
10       H       1     MMT1       H      10	0.425000	1.007940
11      Al       1     MMT1      Al      11	1.575000	26.981540
12      Si       1     MMT1      Si      12	2.100000	28.085380
13      Si       1     MMT1      Si      13	2.100000	28.085380
14     Omg       1     MMT1     Omg      14	-1.180833	15.999410
15     Omg       1     MMT1     Omg      15	-1.180833	15.999410
16    Ohmg       1     MMT1    Ohmg      16	-1.080833	15.999410
17      Ob       1     MMT1      Ob      17	-1.050000	15.999410
18      Ob       1     MMT1      Ob      18	-1.050000	15.999410
19      Ob       1     MMT1      Ob      19	-1.050000	15.999410
20       H       1     MMT1       H      20	0.425000	1.007940
21     Mgo       1     MMT1     Mgo      21	1.360000	24.305000
22      Si       1     MMT1      Si      22	2.100000	28.085380
23      Si       1     MMT1      Si      23	2.100000	28.085380
24      Op       1     MMT1      Op      24	-1.050000	15.999410
25     Omg       1     MMT1     Omg      25	-1.180833	15.999410
26    Ohmg       1     MMT1    Ohmg      26	-1.080833	15.999410
27      Ob       1     MMT1      Ob      27	-1.050000	15.999410
28      Ob       1     MMT1      Ob      28	-1.050000	15.999410
29      Ob       1     MMT1      Ob      29	-1.050000	15.999410
30       H       1     MMT1       H      30	0.425000	1.007940
31     Mgo       1     MMT1     Mgo      31	1.360000	24.305000
32      Si       1     MMT1      Si      32	2.100000	28.085380
33      Si       1     MMT1      Si      33	2.100000	28.085380
34      Op       1     MMT1      Op      34	-1.050000	15.999410
35      Op       1     MMT1      Op      35	-1.050000	15.999410
36    Ohmg       1     MMT1    Ohmg      36	-1.080833	15.999410
37      Ob       1     MMT1      Ob      37	-1.050000	15.999410
38      Ob       1     MMT1      Ob      38	-1.050000	15.999410
39      Ob       1     MMT1      Ob      39	-1.050000	15.999410
40       H       1     MMT1       H      40	0.425000	1.007940
41      Al       1     MMT1      Al      41	1.575000	26.981540
42      Si       1     MMT1      Si      42	2.100000	28.085380
43      Si       1     MMT1      Si      43	2.100000	28.085380
44     Omg       1     MMT1     Omg      44	-1.180833	15.999410
45      Op       1     MMT1      Op      45	-1.050000	15.999410
46      Oh       1     MMT1      Oh      46	-0.950000	15.999410
47      Ob       1     MMT1      Ob      47	-1.050000	15.999410
48      Ob       1     MMT1      Ob      48	-1.050000	15.999410
49      Ob       1     MMT1      Ob      49	-1.050000	15.999410
50       H       1     MMT1       H      50	0.425000	1.007940
51      Al       1     MMT1      Al      51	1.575000	26.981540
52      Si       1     MMT1      Si      52	2.100000	28.085380
53      Si       1     MMT1      Si      53	2.100000	28.085380
54      Op       1     MMT1      Op      54	-1.050000	15.999410
55      Op       1     MMT1      Op      55	-1.050000	15.999410
56    Ohmg       1     MMT1    Ohmg      56	-1.080833	15.999410
57      Ob       1     MMT1      Ob      57	-1.050000	15.999410
58      Ob       1     MMT1      Ob      58	-1.050000	15.999410
59      Ob       1     MMT1      Ob      59	-1.050000	15.999410
60       H       1     MMT1       H      60	0.425000	1.007940
61      Al       1     MMT1      Al      61	1.575000	26.981540
62      Si       1     MMT1      Si      62	2.100000	28.085380
63      Si       1     MMT1      Si      63	2.100000	28.085380
64     Omg       1     MMT1     Omg      64	-1.180833	15.999410
65      Op       1     MMT1      Op      65	-1.050000	15.999410
66    Ohmg       1     MMT1    Ohmg      66	-1.080833	15.999410
67      Ob       1     MMT1      Ob      67	-1.050000	15.999410
68      Ob       1     MMT1      Ob      68	-1.050000	15.999410
69      Ob       1     MMT1      Ob      69	-1.050000	15.999410
70       H       1     MMT1       H      70	0.425000	1.007940
71      Al       1     MMT1      Al      71	1.575000	26.981540
72      Si       1     MMT1      Si      72	2.100000	28.085380
73      Si       1     MMT1      Si      73	2.100000	28.085380
74     Omg       1     MMT1     Omg      74	-1.180833	15.999410
75      Op       1     MMT1      Op      75	-1.050000	15.999410
76      Oh       1     MMT1      Oh      76	-0.950000	15.999410
77      Ob       1     MMT1      Ob      77	-1.050000	15.999410
78      Ob       1     MMT1      Ob      78	-1.050000	15.999410
79      Ob       1     MMT1      Ob      79	-1.050000	15.999410
80       H       1     MMT1       H      80	0.425000	1.007940
81     Mgo       1     MMT1     Mgo      81	1.360000	24.305000
82      Si       1     MMT1      Si      82	2.100000	28.085380
83      Si       1     MMT1      Si      83	2.100000	28.085380
84     Omg       1     MMT1     Omg      84	-1.180833	15.999410
85     Omg       1     MMT1     Omg      85	-1.180833	15.999410
86    Ohmg       1     MMT1    Ohmg      86	-1.080833	15.999410
87      Ob       1     MMT1      Ob      87	-1.050000	15.999410
88      Ob       1     MMT1      Ob      88	-1.050000	15.999410
89      Ob       1     MMT1      Ob      89	-1.050000	15.999410
90       H       1     MMT1       H      90	0.425000	1.007940
91     Mgo       1     MMT1     Mgo      91	1.360000	24.305000
92      Si       1     MMT1      Si      92	2.100000	28.085380
93      Si       1     MMT1      Si      93	2.100000	28.085380
94     Omg       1     MMT1     Omg      94	-1.180833	15.999410
95     Omg       1     MMT1     Omg      95	-1.180833	15.999410
96      Oh       1     MMT1      Oh      96	-0.950000	15.999410
97      Ob       1     MMT1      Ob      97	-1.050000	15.999410
98      Ob       1     MMT1      Ob      98	-1.050000	15.999410
99      Ob       1     MMT1      Ob      99	-1.050000	15.999410
100      H       1     MMT1       H     100	0.425000	1.007940
101     Al       1     MMT1      Al     101	1.575000	26.981540
102     Si       1     MMT1      Si     102	2.100000	28.085380
103     Si       1     MMT1      Si     103	2.100000	28.085380
104    Omg       1     MMT1     Omg     104	-1.180833	15.999410
105    Omg       1     MMT1     Omg     105	-1.180833	15.999410
106     Oh       1     MMT1      Oh     106	-0.950000	15.999410
107     Ob       1     MMT1      Ob     107	-1.050000	15.999410
108     Ob       1     MMT1      Ob     108	-1.050000	15.999410
109     Ob       1     MMT1      Ob     109	-1.050000	15.999410
110      H       1     MMT1       H     110	0.425000	1.007940
111     Al       1     MMT1      Al     111	1.575000	26.981540
112     Si       1     MMT1      Si     112	2.100000	28.085380
113     Si       1     MMT1      Si     113	2.100000	28.085380
114     Op       1     MMT1      Op     114	-1.050000	15.999410
115    Omg       1     MMT1     Omg     115	-1.180833	15.999410
116   Ohmg       1     MMT1    Ohmg     116	-1.080833	15.999410
117     Ob       1     MMT1      Ob     117	-1.050000	15.999410
118     Ob       1     MMT1      Ob     118	-1.050000	15.999410
119     Ob       1     MMT1      Ob     119	-1.050000	15.999410
120      H       1     MMT1       H     120	0.425000	1.007940
121     Al       1     MMT1      Al     121	1.575000	26.981540
122     Si       1     MMT1      Si     122	2.100000	28.085380
123     Si       1     MMT1      Si     123	2.100000	28.085380
124     Op       1     MMT1      Op     124	-1.050000	15.999410
125    Omg       1     MMT1     Omg     125	-1.180833	15.999410
126     Oh       1     MMT1      Oh     126	-0.950000	15.999410
127     Ob       1     MMT1      Ob     127	-1.050000	15.999410
128     Ob       1     MMT1      Ob     128	-1.050000	15.999410
129     Ob       1     MMT1      Ob     129	-1.050000	15.999410
130      H       1     MMT1       H     130	0.425000	1.007940
131     Al       1     MMT1      Al     131	1.575000	26.981540
132     Si       1     MMT1      Si     132	2.100000	28.085380
133     Si       1     MMT1      Si     133	2.100000	28.085380
134     Op       1     MMT1      Op     134	-1.050000	15.999410
135    Omg       1     MMT1     Omg     135	-1.180833	15.999410
136   Ohmg       1     MMT1    Ohmg     136	-1.080833	15.999410
137     Ob       1     MMT1      Ob     137	-1.050000	15.999410
138     Ob       1     MMT1      Ob     138	-1.050000	15.999410
139     Ob       1     MMT1      Ob     139	-1.050000	15.999410
140      H       1     MMT1       H     140	0.425000	1.007940
141    Mgo       1     MMT1     Mgo     141	1.360000	24.305000
142     Si       1     MMT1      Si     142	2.100000	28.085380
143     Si       1     MMT1      Si     143	2.100000	28.085380
144     Op       1     MMT1      Op     144	-1.050000	15.999410
145    Omg       1     MMT1     Omg     145	-1.180833	15.999410
146   Ohmg       1     MMT1    Ohmg     146	-1.080833	15.999410
147     Ob       1     MMT1      Ob     147	-1.050000	15.999410
148     Ob       1     MMT1      Ob     148	-1.050000	15.999410
149     Ob       1     MMT1      Ob     149	-1.050000	15.999410
150      H       1     MMT1       H     150	0.425000	1.007940
151     Al       1     MMT1      Al     151	1.575000	26.981540
152     Si       1     MMT1      Si     152	2.100000	28.085380
153     Si       1     MMT1      Si     153	2.100000	28.085380
154    Omg       1     MMT1     Omg     154	-1.180833	15.999410
155    Omg       1     MMT1     Omg     155	-1.180833	15.999410
156     Oh       1     MMT1      Oh     156	-0.950000	15.999410
157     Ob       1     MMT1      Ob     157	-1.050000	15.999410
158     Ob       1     MMT1      Ob     158	-1.050000	15.999410
159     Ob       1     MMT1      Ob     159	-1.050000	15.999410
160      H       1     MMT1       H     160	0.425000	1.007940
161     Al       1     MMT1      Al     161	1.575000	26.981540
162     Si       1     MMT1      Si     162	2.100000	28.085380
163     Si       1     MMT1      Si     163	2.100000	28.085380
164     Op       1     MMT1      Op     164	-1.050000	15.999410
165     Op       1     MMT1      Op     165	-1.050000	15.999410
166   Ohmg       1     MMT1    Ohmg     166	-1.080833	15.999410
167     Ob       1     MMT1      Ob     167	-1.050000	15.999410
168     Ob       1     MMT1      Ob     168	-1.050000	15.999410
169     Ob       1     MMT1      Ob     169	-1.050000	15.999410
170      H       1     MMT1       H     170	0.425000	1.007940
171     Al       1     MMT1      Al     171	1.575000	26.981540
172     Si       1     MMT1      Si     172	2.100000	28.085380
173     Si       1     MMT1      Si     173	2.100000	28.085380
174    Omg       1     MMT1     Omg     174	-1.180833	15.999410
175     Op       1     MMT1      Op     175	-1.050000	15.999410
176   Ohmg       1     MMT1    Ohmg     176	-1.080833	15.999410
177     Ob       1     MMT1      Ob     177	-1.050000	15.999410
178     Ob       1     MMT1      Ob     178	-1.050000	15.999410
179     Ob       1     MMT1      Ob     179	-1.050000	15.999410
180      H       1     MMT1       H     180	0.425000	1.007940
181     Al       1     MMT1      Al     181	1.575000	26.981540
182     Si       1     MMT1      Si     182	2.100000	28.085380
183     Si       1     MMT1      Si     183	2.100000	28.085380
184     Op       1     MMT1      Op     184	-1.050000	15.999410
185     Op       1     MMT1      Op     185	-1.050000	15.999410
186   Ohmg       1     MMT1    Ohmg     186	-1.080833	15.999410
187     Ob       1     MMT1      Ob     187	-1.050000	15.999410
188     Ob       1     MMT1      Ob     188	-1.050000	15.999410
189     Ob       1     MMT1      Ob     189	-1.050000	15.999410
190      H       1     MMT1       H     190	0.425000	1.007940
191    Mgo       1     MMT1     Mgo     191	1.360000	24.305000
192     Si       1     MMT1      Si     192	2.100000	28.085380
193     Si       1     MMT1      Si     193	2.100000	28.085380
194    Omg       1     MMT1     Omg     194	-1.180833	15.999410
195     Op       1     MMT1      Op     195	-1.050000	15.999410
196   Ohmg       1     MMT1    Ohmg     196	-1.080833	15.999410
197     Ob       1     MMT1      Ob     197	-1.050000	15.999410
198     Ob       1     MMT1      Ob     198	-1.050000	15.999410
199     Ob       1     MMT1      Ob     199	-1.050000	15.999410
200      H       1     MMT1       H     200	0.425000	1.007940
201     Al       1     MMT1      Al     201	1.575000	26.981540
202     Si       1     MMT1      Si     202	2.100000	28.085380
203     Si       1     MMT1      Si     203	2.100000	28.085380
204    Omg       1     MMT1     Omg     204	-1.180833	15.999410
205    Omg       1     MMT1     Omg     205	-1.180833	15.999410
206     Oh       1     MMT1      Oh     206	-0.950000	15.999410
207     Ob       1     MMT1      Ob     207	-1.050000	15.999410
208     Ob       1     MMT1      Ob     208	-1.050000	15.999410
209     Ob       1     MMT1      Ob     209	-1.050000	15.999410
210      H       1     MMT1       H     210	0.425000	1.007940
211    Mgo       1     MMT1     Mgo     211	1.360000	24.305000
212     Si       1     MMT1      Si     212	2.100000	28.085380
213     Si       1     MMT1      Si     213	2.100000	28.085380
214    Omg       1     MMT1     Omg     214	-1.180833	15.999410
215    Omg       1     MMT1     Omg     215	-1.180833	15.999410
216     Oh       1     MMT1      Oh     216	-0.950000	15.999410
217     Ob       1     MMT1      Ob     217	-1.050000	15.999410
218     Ob       1     MMT1      Ob     218	-1.050000	15.999410
219     Ob       1     MMT1      Ob     219	-1.050000	15.999410
220      H       1     MMT1       H     220	0.425000	1.007940
221     Al       1     MMT1      Al     221	1.575000	26.981540
222     Si       1     MMT1      Si     222	2.100000	28.085380
223     Si       1     MMT1      Si     223	2.100000	28.085380
224    Omg       1     MMT1     Omg     224	-1.180833	15.999410
225    Omg       1     MMT1     Omg     225	-1.180833	15.999410
226     Oh       1     MMT1      Oh     226	-0.950000	15.999410
227     Ob       1     MMT1      Ob     227	-1.050000	15.999410
228     Ob       1     MMT1      Ob     228	-1.050000	15.999410
229     Ob       1     MMT1      Ob     229	-1.050000	15.999410
230      H       1     MMT1       H     230	0.425000	1.007940
231     Al       1     MMT1      Al     231	1.575000	26.981540
232     Si       1     MMT1      Si     232	2.100000	28.085380
233     Si       1     MMT1      Si     233	2.100000	28.085380
234    Omg       1     MMT1     Omg     234	-1.180833	15.999410
235    Omg       1     MMT1     Omg     235	-1.180833	15.999410
236     Oh       1     MMT1      Oh     236	-0.950000	15.999410
237     Ob       1     MMT1      Ob     237	-1.050000	15.999410
238     Ob       1     MMT1      Ob     238	-1.050000	15.999410
239     Ob       1     MMT1      Ob     239	-1.050000	15.999410
240      H       1     MMT1       H     240	0.425000	1.007940
241     Al       1     MMT1      Al     241	1.575000	26.981540
242     Si       1     MMT1      Si     242	2.100000	28.085380
243     Si       1     MMT1      Si     243	2.100000	28.085380
244    Omg       1     MMT1     Omg     244	-1.180833	15.999410
245     Op       1     MMT1      Op     245	-1.050000	15.999410
246   Ohmg       1     MMT1    Ohmg     246	-1.080833	15.999410
247     Ob       1     MMT1      Ob     247	-1.050000	15.999410
248     Ob       1     MMT1      Ob     248	-1.050000	15.999410
249     Ob       1     MMT1      Ob     249	-1.050000	15.999410
250      H       1     MMT1       H     250	0.425000	1.007940
251     Al       1     MMT1      Al     251	1.575000	26.981540
252     Si       1     MMT1      Si     252	2.100000	28.085380
253     Si       1     MMT1      Si     253	2.100000	28.085380
254    Omg       1     MMT1     Omg     254	-1.180833	15.999410
255     Op       1     MMT1      Op     255	-1.050000	15.999410
256   Ohmg       1     MMT1    Ohmg     256	-1.080833	15.999410
257     Ob       1     MMT1      Ob     257	-1.050000	15.999410
258     Ob       1     MMT1      Ob     258	-1.050000	15.999410
259     Ob       1     MMT1      Ob     259	-1.050000	15.999410
260      H       1     MMT1       H     260	0.425000	1.007940
261     Al       1     MMT1      Al     261	1.575000	26.981540
262     Si       1     MMT1      Si     262	2.100000	28.085380
263     Si       1     MMT1      Si     263	2.100000	28.085380
264    Omg       1     MMT1     Omg     264	-1.180833	15.999410
265     Op       1     MMT1      Op     265	-1.050000	15.999410
266   Ohmg       1     MMT1    Ohmg     266	-1.080833	15.999410
267     Ob       1     MMT1      Ob     267	-1.050000	15.999410
268     Ob       1     MMT1      Ob     268	-1.050000	15.999410
269     Ob       1     MMT1      Ob     269	-1.050000	15.999410
270      H       1     MMT1       H     270	0.425000	1.007940
271    Mgo       1     MMT1     Mgo     271	1.360000	24.305000
272     Si       1     MMT1      Si     272	2.100000	28.085380
273     Si       1     MMT1      Si     273	2.100000	28.085380
274    Omg       1     MMT1     Omg     274	-1.180833	15.999410
275     Op       1     MMT1      Op     275	-1.050000	15.999410
276   Ohmg       1     MMT1    Ohmg     276	-1.080833	15.999410
277     Ob       1     MMT1      Ob     277	-1.050000	15.999410
278     Ob       1     MMT1      Ob     278	-1.050000	15.999410
279     Ob       1     MMT1      Ob     279	-1.050000	15.999410
280      H       1     MMT1       H     280	0.425000	1.007940
281     Al       1     MMT1      Al     281	1.575000	26.981540
282     Si       1     MMT1      Si     282	2.100000	28.085380
283     Si       1     MMT1      Si     283	2.100000	28.085380
284     Op       1     MMT1      Op     284	-1.050000	15.999410
285     Op       1     MMT1      Op     285	-1.050000	15.999410
286     Oh       1     MMT1      Oh     286	-0.950000	15.999410
287     Ob       1     MMT1      Ob     287	-1.050000	15.999410
288     Ob       1     MMT1      Ob     288	-1.050000	15.999410
289     Ob       1     MMT1      Ob     289	-1.050000	15.999410
290      H       1     MMT1       H     290	0.425000	1.007940
291    Mgo       1     MMT1     Mgo     291	1.360000	24.305000
292     Si       1     MMT1      Si     292	2.100000	28.085380
293     Si       1     MMT1      Si     293	2.100000	28.085380
294    Omg       1     MMT1     Omg     294	-1.180833	15.999410
295    Omg       1     MMT1     Omg     295	-1.180833	15.999410
296   Ohmg       1     MMT1    Ohmg     296	-1.080833	15.999410
297     Ob       1     MMT1      Ob     297	-1.050000	15.999410
298     Ob       1     MMT1      Ob     298	-1.050000	15.999410
299     Ob       1     MMT1      Ob     299	-1.050000	15.999410
300      H       1     MMT1       H     300	0.425000	1.007940
301     Al       1     MMT1      Al     301	1.575000	26.981540
302     Si       1     MMT1      Si     302	2.100000	28.085380
303     Si       1     MMT1      Si     303	2.100000	28.085380
304     Op       1     MMT1      Op     304	-1.050000	15.999410
305    Omg       1     MMT1     Omg     305	-1.180833	15.999410
306   Ohmg       1     MMT1    Ohmg     306	-1.080833	15.999410
307     Ob       1     MMT1      Ob     307	-1.050000	15.999410
308     Ob       1     MMT1      Ob     308	-1.050000	15.999410
309     Ob       1     MMT1      Ob     309	-1.050000	15.999410
310      H       1     MMT1       H     310	0.425000	1.007940
311     Al       1     MMT1      Al     311	1.575000	26.981540
312     Si       1     MMT1      Si     312	2.100000	28.085380
313     Si       1     MMT1      Si     313	2.100000	28.085380
314    Omg       1     MMT1     Omg     314	-1.180833	15.999410
315     Op       1     MMT1      Op     315	-1.050000	15.999410
316     Oh       1     MMT1      Oh     316	-0.950000	15.999410
317     Ob       1     MMT1      Ob     317	-1.050000	15.999410
318     Ob       1     MMT1      Ob     318	-1.050000	15.999410
319     Ob       1     MMT1      Ob     319	-1.050000	15.999410
320      H       1     MMT1       H     320	0.425000	1.007940
321     Al       1     MMT1      Al     321	1.575000	26.981540
322     Si       1     MMT1      Si     322	2.100000	28.085380
323     Si       1     MMT1      Si     323	2.100000	28.085380
324     Op       1     MMT1      Op     324	-1.050000	15.999410
325     Op       1     MMT1      Op     325	-1.050000	15.999410
326     Oh       1     MMT1      Oh     326	-0.950000	15.999410
327     Ob       1     MMT1      Ob     327	-1.050000	15.999410
328     Ob       1     MMT1      Ob     328	-1.050000	15.999410
329     Ob       1     MMT1      Ob     329	-1.050000	15.999410
330      H       1     MMT1       H     330	0.425000	1.007940
331    Mgo       1     MMT1     Mgo     331	1.360000	24.305000
332     Si       1     MMT1      Si     332	2.100000	28.085380
333     Si       1     MMT1      Si     333	2.100000	28.085380
334    Omg       1     MMT1     Omg     334	-1.180833	15.999410
335    Omg       1     MMT1     Omg     335	-1.180833	15.999410
336     Oh       1     MMT1      Oh     336	-0.950000	15.999410
337     Ob       1     MMT1      Ob     337	-1.050000	15.999410
338     Ob       1     MMT1      Ob     338	-1.050000	15.999410
339     Ob       1     MMT1      Ob     339	-1.050000	15.999410
340      H       1     MMT1       H     340	0.425000	1.007940
341     Al       1     MMT1      Al     341	1.575000	26.981540
342     Si       1     MMT1      Si     342	2.100000	28.085380
343     Si       1     MMT1      Si     343	2.100000	28.085380
344     Op       1     MMT1      Op     344	-1.050000	15.999410
345    Omg       1     MMT1     Omg     345	-1.180833	15.999410
346     Oh       1     MMT1      Oh     346	-0.950000	15.999410
347     Ob       1     MMT1      Ob     347	-1.050000	15.999410
348     Ob       1     MMT1      Ob     348	-1.050000	15.999410
349     Ob       1     MMT1      Ob     349	-1.050000	15.999410
350      H       1     MMT1       H     350	0.425000	1.007940
351     Al       1     MMT1      Al     351	1.575000	26.981540
352     Si       1     MMT1      Si     352	2.100000	28.085380
353     Si       1     MMT1      Si     353	2.100000	28.085380
354     Op       1     MMT1      Op     354	-1.050000	15.999410
355     Op       1     MMT1      Op     355	-1.050000	15.999410
356     Oh       1     MMT1      Oh     356	-0.950000	15.999410
357     Ob       1     MMT1      Ob     357	-1.050000	15.999410
358     Ob       1     MMT1      Ob     358	-1.050000	15.999410
359     Ob       1     MMT1      Ob     359	-1.050000	15.999410
360      H       1     MMT1       H     360	0.425000	1.007940
361     Al       1     MMT1      Al     361	1.575000	26.981540
362     Si       1     MMT1      Si     362	2.100000	28.085380
363     Si       1     MMT1      Si     363	2.100000	28.085380
364    Omg       1     MMT1     Omg     364	-1.180833	15.999410
365     Op       1     MMT1      Op     365	-1.050000	15.999410
366     Oh       1     MMT1      Oh     366	-0.950000	15.999410
367     Ob       1     MMT1      Ob     367	-1.050000	15.999410
368     Ob       1     MMT1      Ob     368	-1.050000	15.999410
369     Ob       1     MMT1      Ob     369	-1.050000	15.999410
370      H       1     MMT1       H     370	0.425000	1.007940
371     Al       1     MMT1      Al     371	1.575000	26.981540
372     Si       1     MMT1      Si     372	2.100000	28.085380
373     Si       1     MMT1      Si     373	2.100000	28.085380
374     Op       1     MMT1      Op     374	-1.050000	15.999410
375     Op       1     MMT1      Op     375	-1.050000	15.999410
376     Oh       1     MMT1      Oh     376	-0.950000	15.999410
377     Ob       1     MMT1      Ob     377	-1.050000	15.999410
378     Ob       1     MMT1      Ob     378	-1.050000	15.999410
379     Ob       1     MMT1      Ob     379	-1.050000	15.999410
380      H       1     MMT1       H     380	0.425000	1.007940
381     Al       1     MMT1      Al     381	1.575000	26.981540
382     Si       1     MMT1      Si     382	2.100000	28.085380
383     Si       1     MMT1      Si     383	2.100000	28.085380
384    Omg       1     MMT1     Omg     384	-1.180833	15.999410
385     Op       1     MMT1      Op     385	-1.050000	15.999410
386     Oh       1     MMT1      Oh     386	-0.950000	15.999410
387     Ob       1     MMT1      Ob     387	-1.050000	15.999410
388     Ob       1     MMT1      Ob     388	-1.050000	15.999410
389     Ob       1     MMT1      Ob     389	-1.050000	15.999410
390      H       1     MMT1       H     390	0.425000	1.007940
391     Al       1     MMT1      Al     391	1.575000	26.981540
392     Si       1     MMT1      Si     392	2.100000	28.085380
393     Si       1     MMT1      Si     393	2.100000	28.085380
394     Op       1     MMT1      Op     394	-1.050000	15.999410
395     Op       1     MMT1      Op     395	-1.050000	15.999410
396     Oh       1     MMT1      Oh     396	-0.950000	15.999410
397     Ob       1     MMT1      Ob     397	-1.050000	15.999410
398     Ob       1     MMT1      Ob     398	-1.050000	15.999410
399     Ob       1     MMT1      Ob     399	-1.050000	15.999410
400      H       1     MMT1       H     400	0.425000	1.007940
401     Al       1     MMT1      Al     401	1.575000	26.981540
402     Si       1     MMT1      Si     402	2.100000	28.085380
403     Si       1     MMT1      Si     403	2.100000	28.085380
404     Op       1     MMT1      Op     404	-1.050000	15.999410
405    Omg       1     MMT1     Omg     405	-1.180833	15.999410
406     Oh       1     MMT1      Oh     406	-0.950000	15.999410
407     Ob       1     MMT1      Ob     407	-1.050000	15.999410
408     Ob       1     MMT1      Ob     408	-1.050000	15.999410
409     Ob       1     MMT1      Ob     409	-1.050000	15.999410
410      H       1     MMT1       H     410	0.425000	1.007940
411     Al       1     MMT1      Al     411	1.575000	26.981540
412     Si       1     MMT1      Si     412	2.100000	28.085380
413     Si       1     MMT1      Si     413	2.100000	28.085380
414     Op       1     MMT1      Op     414	-1.050000	15.999410
415    Omg       1     MMT1     Omg     415	-1.180833	15.999410
416   Ohmg       1     MMT1    Ohmg     416	-1.080833	15.999410
417     Ob       1     MMT1      Ob     417	-1.050000	15.999410
418     Ob       1     MMT1      Ob     418	-1.050000	15.999410
419     Ob       1     MMT1      Ob     419	-1.050000	15.999410
420      H       1     MMT1       H     420	0.425000	1.007940
421    Mgo       1     MMT1     Mgo     421	1.360000	24.305000
422     Si       1     MMT1      Si     422	2.100000	28.085380
423     Si       1     MMT1      Si     423	2.100000	28.085380
424     Op       1     MMT1      Op     424	-1.050000	15.999410
425    Omg       1     MMT1     Omg     425	-1.180833	15.999410
426   Ohmg       1     MMT1    Ohmg     426	-1.080833	15.999410
427     Ob       1     MMT1      Ob     427	-1.050000	15.999410
428     Ob       1     MMT1      Ob     428	-1.050000	15.999410
429     Ob       1     MMT1      Ob     429	-1.050000	15.999410
430      H       1     MMT1       H     430	0.425000	1.007940
431     Al       1     MMT1      Al     431	1.575000	26.981540
432     Si       1     MMT1      Si     432	2.100000	28.085380
433     Si       1     MMT1      Si     433	2.100000	28.085380
434    Omg       1     MMT1     Omg     434	-1.180833	15.999410
435    Omg       1     MMT1     Omg     435	-1.180833	15.999410
436     Oh       1     MMT1      Oh     436	-0.950000	15.999410
437     Ob       1     MMT1      Ob     437	-1.050000	15.999410
438     Ob       1     MMT1      Ob     438	-1.050000	15.999410
439     Ob       1     MMT1      Ob     439	-1.050000	15.999410
440      H       1     MMT1       H     440	0.425000	1.007940
441     Al       1     MMT1      Al     441	1.575000	26.981540
442     Si       1     MMT1      Si     442	2.100000	28.085380
443     Si       1     MMT1      Si     443	2.100000	28.085380
444     Op       1     MMT1      Op     444	-1.050000	15.999410
445    Omg       1     MMT1     Omg     445	-1.180833	15.999410
446   Ohmg       1     MMT1    Ohmg     446	-1.080833	15.999410
447     Ob       1     MMT1      Ob     447	-1.050000	15.999410
448     Ob       1     MMT1      Ob     448	-1.050000	15.999410
449     Ob       1     MMT1      Ob     449	-1.050000	15.999410
450      H       1     MMT1       H     450	0.425000	1.007940
451     Al       1     MMT1      Al     451	1.575000	26.981540
452     Si       1     MMT1      Si     452	2.100000	28.085380
453     Si       1     MMT1      Si     453	2.100000	28.085380
454    Omg       1     MMT1     Omg     454	-1.180833	15.999410
455     Op       1     MMT1      Op     455	-1.050000	15.999410
456     Oh       1     MMT1      Oh     456	-0.950000	15.999410
457     Ob       1     MMT1      Ob     457	-1.050000	15.999410
458     Ob       1     MMT1      Ob     458	-1.050000	15.999410
459     Ob       1     MMT1      Ob     459	-1.050000	15.999410
460      H       1     MMT1       H     460	0.425000	1.007940
461     Al       1     MMT1      Al     461	1.575000	26.981540
462     Si       1     MMT1      Si     462	2.100000	28.085380
463     Si       1     MMT1      Si     463	2.100000	28.085380
464     Op       1     MMT1      Op     464	-1.050000	15.999410
465     Op       1     MMT1      Op     465	-1.050000	15.999410
466     Oh       1     MMT1      Oh     466	-0.950000	15.999410
467     Ob       1     MMT1      Ob     467	-1.050000	15.999410
468     Ob       1     MMT1      Ob     468	-1.050000	15.999410
469     Ob       1     MMT1      Ob     469	-1.050000	15.999410
470      H       1     MMT1       H     470	0.425000	1.007940
471    Mgo       1     MMT1     Mgo     471	1.360000	24.305000
472     Si       1     MMT1      Si     472	2.100000	28.085380
473     Si       1     MMT1      Si     473	2.100000	28.085380
474    Omg       1     MMT1     Omg     474	-1.180833	15.999410
475    Omg       1     MMT1     Omg     475	-1.180833	15.999410
476   Ohmg       1     MMT1    Ohmg     476	-1.080833	15.999410
477     Ob       1     MMT1      Ob     477	-1.050000	15.999410
478     Ob       1     MMT1      Ob     478	-1.050000	15.999410
479     Ob       1     MMT1      Ob     479	-1.050000	15.999410
480      H       1     MMT1       H     480	0.425000	1.007940
481     Al       1     MMT1      Al     481	1.575000	26.981540
482     Si       1     MMT1      Si     482	2.100000	28.085380
483     Si       1     MMT1      Si     483	2.100000	28.085380
484    Omg       1     MMT1     Omg     484	-1.180833	15.999410
485     Op       1     MMT1      Op     485	-1.050000	15.999410
486     Oh       1     MMT1      Oh     486	-0.950000	15.999410
487     Ob       1     MMT1      Ob     487	-1.050000	15.999410
488     Ob       1     MMT1      Ob     488	-1.050000	15.999410
489     Ob       1     MMT1      Ob     489	-1.050000	15.999410
490      H       1     MMT1       H     490	0.425000	1.007940
491    Mgo       1     MMT1     Mgo     491	1.360000	24.305000
492     Si       1     MMT1      Si     492	2.100000	28.085380
493     Si       1     MMT1      Si     493	2.100000	28.085380
494    Omg       1     MMT1     Omg     494	-1.180833	15.999410
495    Omg       1     MMT1     Omg     495	-1.180833	15.999410
496     Oh       1     MMT1      Oh     496	-0.950000	15.999410
497     Ob       1     MMT1      Ob     497	-1.050000	15.999410
498     Ob       1     MMT1      Ob     498	-1.050000	15.999410
499     Ob       1     MMT1      Ob     499	-1.050000	15.999410
500      H       1     MMT1       H     500	0.425000	1.007940
501     Al       1     MMT1      Al     501	1.575000	26.981540
502     Si       1     MMT1      Si     502	2.100000	28.085380
503     Si       1     MMT1      Si     503	2.100000	28.085380
504    Omg       1     MMT1     Omg     504	-1.180833	15.999410
505    Omg       1     MMT1     Omg     505	-1.180833	15.999410
506     Oh       1     MMT1      Oh     506	-0.950000	15.999410
507     Ob       1     MMT1      Ob     507	-1.050000	15.999410
508     Ob       1     MMT1      Ob     508	-1.050000	15.999410
509     Ob       1     MMT1      Ob     509	-1.050000	15.999410
510      H       1     MMT1       H     510	0.425000	1.007940
511     Al       1     MMT1      Al     511	1.575000	26.981540
512     Si       1     MMT1      Si     512	2.100000	28.085380
513     Si       1     MMT1      Si     513	2.100000	28.085380
514     Op       1     MMT1      Op     514	-1.050000	15.999410
515     Op       1     MMT1      Op     515	-1.050000	15.999410
516     Oh       1     MMT1      Oh     516	-0.950000	15.999410
517     Ob       1     MMT1      Ob     517	-1.050000	15.999410
518     Ob       1     MMT1      Ob     518	-1.050000	15.999410
519     Ob       1     MMT1      Ob     519	-1.050000	15.999410
520      H       1     MMT1       H     520	0.425000	1.007940
521    Mgo       1     MMT1     Mgo     521	1.360000	24.305000
522     Si       1     MMT1      Si     522	2.100000	28.085380
523     Si       1     MMT1      Si     523	2.100000	28.085380
524    Omg       1     MMT1     Omg     524	-1.180833	15.999410
525    Omg       1     MMT1     Omg     525	-1.180833	15.999410
526   Ohmg       1     MMT1    Ohmg     526	-1.080833	15.999410
527     Ob       1     MMT1      Ob     527	-1.050000	15.999410
528     Ob       1     MMT1      Ob     528	-1.050000	15.999410
529     Ob       1     MMT1      Ob     529	-1.050000	15.999410
530      H       1     MMT1       H     530	0.425000	1.007940
531     Al       1     MMT1      Al     531	1.575000	26.981540
532     Si       1     MMT1      Si     532	2.100000	28.085380
533     Si       1     MMT1      Si     533	2.100000	28.085380
534     Op       1     MMT1      Op     534	-1.050000	15.999410
535     Op       1     MMT1      Op     535	-1.050000	15.999410
536   Ohmg       1     MMT1    Ohmg     536	-1.080833	15.999410
537     Ob       1     MMT1      Ob     537	-1.050000	15.999410
538     Ob       1     MMT1      Ob     538	-1.050000	15.999410
539     Ob       1     MMT1      Ob     539	-1.050000	15.999410
540      H       1     MMT1       H     540	0.425000	1.007940
541     Al       1     MMT1      Al     541	1.575000	26.981540
542     Si       1     MMT1      Si     542	2.100000	28.085380
543     Si       1     MMT1      Si     543	2.100000	28.085380
544    Omg       1     MMT1     Omg     544	-1.180833	15.999410
545     Op       1     MMT1      Op     545	-1.050000	15.999410
546   Ohmg       1     MMT1    Ohmg     546	-1.080833	15.999410
547     Ob       1     MMT1      Ob     547	-1.050000	15.999410
548     Ob       1     MMT1      Ob     548	-1.050000	15.999410
549     Ob       1     MMT1      Ob     549	-1.050000	15.999410
550      H       1     MMT1       H     550	0.425000	1.007940
551     Al       1     MMT1      Al     551	1.575000	26.981540
552     Si       1     MMT1      Si     552	2.100000	28.085380
553     Si       1     MMT1      Si     553	2.100000	28.085380
554    Omg       1     MMT1     Omg     554	-1.180833	15.999410
555    Omg       1     MMT1     Omg     555	-1.180833	15.999410
556   Ohmg       1     MMT1    Ohmg     556	-1.080833	15.999410
557     Ob       1     MMT1      Ob     557	-1.050000	15.999410
558     Ob       1     MMT1      Ob     558	-1.050000	15.999410
559     Ob       1     MMT1      Ob     559	-1.050000	15.999410
560      H       1     MMT1       H     560	0.425000	1.007940
561    Mgo       1     MMT1     Mgo     561	1.360000	24.305000
562     Si       1     MMT1      Si     562	2.100000	28.085380
563     Si       1     MMT1      Si     563	2.100000	28.085380
564    Omg       1     MMT1     Omg     564	-1.180833	15.999410
565    Omg       1     MMT1     Omg     565	-1.180833	15.999410
566   Ohmg       1     MMT1    Ohmg     566	-1.080833	15.999410
567     Ob       1     MMT1      Ob     567	-1.050000	15.999410
568     Ob       1     MMT1      Ob     568	-1.050000	15.999410
569     Ob       1     MMT1      Ob     569	-1.050000	15.999410
570      H       1     MMT1       H     570	0.425000	1.007940
571    Mgo       1     MMT1     Mgo     571	1.360000	24.305000
572     Si       1     MMT1      Si     572	2.100000	28.085380
573     Si       1     MMT1      Si     573	2.100000	28.085380
574    Omg       1     MMT1     Omg     574	-1.180833	15.999410
575    Omg       1     MMT1     Omg     575	-1.180833	15.999410
576     Oh       1     MMT1      Oh     576	-0.950000	15.999410
577     Ob       1     MMT1      Ob     577	-1.050000	15.999410
578     Ob       1     MMT1      Ob     578	-1.050000	15.999410
579     Ob       1     MMT1      Ob     579	-1.050000	15.999410
580      H       1     MMT1       H     580	0.425000	1.007940
581     Al       1     MMT1      Al     581	1.575000	26.981540
582     Si       1     MMT1      Si     582	2.100000	28.085380
583     Si       1     MMT1      Si     583	2.100000	28.085380
584    Omg       1     MMT1     Omg     584	-1.180833	15.999410
585    Omg       1     MMT1     Omg     585	-1.180833	15.999410
586     Oh       1     MMT1      Oh     586	-0.950000	15.999410
587     Ob       1     MMT1      Ob     587	-1.050000	15.999410
588     Ob       1     MMT1      Ob     588	-1.050000	15.999410
589     Ob       1     MMT1      Ob     589	-1.050000	15.999410
590      H       1     MMT1       H     590	0.425000	1.007940
591     Al       1     MMT1      Al     591	1.575000	26.981540
592     Si       1     MMT1      Si     592	2.100000	28.085380
593     Si       1     MMT1      Si     593	2.100000	28.085380
594     Op       1     MMT1      Op     594	-1.050000	15.999410
595    Omg       1     MMT1     Omg     595	-1.180833	15.999410
596   Ohmg       1     MMT1    Ohmg     596	-1.080833	15.999410
597     Ob       1     MMT1      Ob     597	-1.050000	15.999410
598     Ob       1     MMT1      Ob     598	-1.050000	15.999410
599     Ob       1     MMT1      Ob     599	-1.050000	15.999410
600      H       1     MMT1       H     600	0.425000	1.007940
601     Al       1     MMT1      Al     601	1.575000	26.981540
602     Si       1     MMT1      Si     602	2.100000	28.085380
603     Si       1     MMT1      Si     603	2.100000	28.085380
604    Omg       1     MMT1     Omg     604	-1.180833	15.999410
605    Omg       1     MMT1     Omg     605	-1.180833	15.999410
606     Oh       1     MMT1      Oh     606	-0.950000	15.999410
607     Ob       1     MMT1      Ob     607	-1.050000	15.999410
608     Ob       1     MMT1      Ob     608	-1.050000	15.999410
609     Ob       1     MMT1      Ob     609	-1.050000	15.999410
610      H       1     MMT1       H     610	0.425000	1.007940
611     Al       1     MMT1      Al     611	1.575000	26.981540
612     Si       1     MMT1      Si     612	2.100000	28.085380
613     Si       1     MMT1      Si     613	2.100000	28.085380
614     Op       1     MMT1      Op     614	-1.050000	15.999410
615     Op       1     MMT1      Op     615	-1.050000	15.999410
616     Oh       1     MMT1      Oh     616	-0.950000	15.999410
617     Ob       1     MMT1      Ob     617	-1.050000	15.999410
618     Ob       1     MMT1      Ob     618	-1.050000	15.999410
619     Ob       1     MMT1      Ob     619	-1.050000	15.999410
620      H       1     MMT1       H     620	0.425000	1.007940
621     Al       1     MMT1      Al     621	1.575000	26.981540
622     Si       1     MMT1      Si     622	2.100000	28.085380
623     Si       1     MMT1      Si     623	2.100000	28.085380
624    Omg       1     MMT1     Omg     624	-1.180833	15.999410
625     Op       1     MMT1      Op     625	-1.050000	15.999410
626     Oh       1     MMT1      Oh     626	-0.950000	15.999410
627     Ob       1     MMT1      Ob     627	-1.050000	15.999410
628     Ob       1     MMT1      Ob     628	-1.050000	15.999410
629     Ob       1     MMT1      Ob     629	-1.050000	15.999410
630      H       1     MMT1       H     630	0.425000	1.007940
631     Al       1     MMT1      Al     631	1.575000	26.981540
632     Si       1     MMT1      Si     632	2.100000	28.085380
633     Si       1     MMT1      Si     633	2.100000	28.085380
634    Omg       1     MMT1     Omg     634	-1.180833	15.999410
635    Omg       1     MMT1     Omg     635	-1.180833	15.999410
636     Oh       1     MMT1      Oh     636	-0.950000	15.999410
637     Ob       1     MMT1      Ob     637	-1.050000	15.999410
638     Ob       1     MMT1      Ob     638	-1.050000	15.999410
639     Ob       1     MMT1      Ob     639	-1.050000	15.999410
640      H       1     MMT1       H     640	0.425000	1.007940
641     Al       1     MMT1      Al     641	1.575000	26.981540
642     Si       1     MMT1      Si     642	2.100000	28.085380
643     Si       1     MMT1      Si     643	2.100000	28.085380
644     Op       1     MMT1      Op     644	-1.050000	15.999410
645     Op       1     MMT1      Op     645	-1.050000	15.999410
646   Ohmg       1     MMT1    Ohmg     646	-1.080833	15.999410
647     Ob       1     MMT1      Ob     647	-1.050000	15.999410
648     Ob       1     MMT1      Ob     648	-1.050000	15.999410
649     Ob       1     MMT1      Ob     649	-1.050000	15.999410
650      H       1     MMT1       H     650	0.425000	1.007940
651     Al       1     MMT1      Al     651	1.575000	26.981540
652     Si       1     MMT1      Si     652	2.100000	28.085380
653     Si       1     MMT1      Si     653	2.100000	28.085380
654    Omg       1     MMT1     Omg     654	-1.180833	15.999410
655     Op       1     MMT1      Op     655	-1.050000	15.999410
656     Oh       1     MMT1      Oh     656	-0.950000	15.999410
657     Ob       1     MMT1      Ob     657	-1.050000	15.999410
658     Ob       1     MMT1      Ob     658	-1.050000	15.999410
659     Ob       1     MMT1      Ob     659	-1.050000	15.999410
660      H       1     MMT1       H     660	0.425000	1.007940
661     Al       1     MMT1      Al     661	1.575000	26.981540
662     Si       1     MMT1      Si     662	2.100000	28.085380
663     Si       1     MMT1      Si     663	2.100000	28.085380
664     Op       1     MMT1      Op     664	-1.050000	15.999410
665     Op       1     MMT1      Op     665	-1.050000	15.999410
666     Oh       1     MMT1      Oh     666	-0.950000	15.999410
667     Ob       1     MMT1      Ob     667	-1.050000	15.999410
668     Ob       1     MMT1      Ob     668	-1.050000	15.999410
669     Ob       1     MMT1      Ob     669	-1.050000	15.999410
670      H       1     MMT1       H     670	0.425000	1.007940
671    Mgo       1     MMT1     Mgo     671	1.360000	24.305000
672     Si       1     MMT1      Si     672	2.100000	28.085380
673     Si       1     MMT1      Si     673	2.100000	28.085380
674     Op       1     MMT1      Op     674	-1.050000	15.999410
675     Op       1     MMT1      Op     675	-1.050000	15.999410
676   Ohmg       1     MMT1    Ohmg     676	-1.080833	15.999410
677     Ob       1     MMT1      Ob     677	-1.050000	15.999410
678     Ob       1     MMT1      Ob     678	-1.050000	15.999410
679     Ob       1     MMT1      Ob     679	-1.050000	15.999410
680      H       1     MMT1       H     680	0.425000	1.007940
681     Al       1     MMT1      Al     681	1.575000	26.981540
682     Si       1     MMT1      Si     682	2.100000	28.085380
683     Si       1     MMT1      Si     683	2.100000	28.085380
684     Op       1     MMT1      Op     684	-1.050000	15.999410
685    Omg       1     MMT1     Omg     685	-1.180833	15.999410
686     Oh       1     MMT1      Oh     686	-0.950000	15.999410
687     Ob       1     MMT1      Ob     687	-1.050000	15.999410
688     Ob       1     MMT1      Ob     688	-1.050000	15.999410
689     Ob       1     MMT1      Ob     689	-1.050000	15.999410
690      H       1     MMT1       H     690	0.425000	1.007940
691     Al       1     MMT1      Al     691	1.575000	26.981540
692     Si       1     MMT1      Si     692	2.100000	28.085380
693     Si       1     MMT1      Si     693	2.100000	28.085380
694     Op       1     MMT1      Op     694	-1.050000	15.999410
695    Omg       1     MMT1     Omg     695	-1.180833	15.999410
696   Ohmg       1     MMT1    Ohmg     696	-1.080833	15.999410
697     Ob       1     MMT1      Ob     697	-1.050000	15.999410
698     Ob       1     MMT1      Ob     698	-1.050000	15.999410
699     Ob       1     MMT1      Ob     699	-1.050000	15.999410
700      H       1     MMT1       H     700	0.425000	1.007940
701    Mgo       1     MMT1     Mgo     701	1.360000	24.305000
702     Si       1     MMT1      Si     702	2.100000	28.085380
703     Si       1     MMT1      Si     703	2.100000	28.085380
704     Op       1     MMT1      Op     704	-1.050000	15.999410
705    Omg       1     MMT1     Omg     705	-1.180833	15.999410
706   Ohmg       1     MMT1    Ohmg     706	-1.080833	15.999410
707     Ob       1     MMT1      Ob     707	-1.050000	15.999410
708     Ob       1     MMT1      Ob     708	-1.050000	15.999410
709     Ob       1     MMT1      Ob     709	-1.050000	15.999410
710      H       1     MMT1       H     710	0.425000	1.007940
711     Al       1     MMT1      Al     711	1.575000	26.981540
712     Si       1     MMT1      Si     712	2.100000	28.085380
713     Si       1     MMT1      Si     713	2.100000	28.085380
714    Omg       1     MMT1     Omg     714	-1.180833	15.999410
715    Omg       1     MMT1     Omg     715	-1.180833	15.999410
716     Oh       1     MMT1      Oh     716	-0.950000	15.999410
717     Ob       1     MMT1      Ob     717	-1.050000	15.999410
718     Ob       1     MMT1      Ob     718	-1.050000	15.999410
719     Ob       1     MMT1      Ob     719	-1.050000	15.999410
720      H       1     MMT1       H     720	0.425000	1.007940
721     Al       1     MMT1      Al     721	1.575000	26.981540
722     Si       1     MMT1      Si     722	2.100000	28.085380
723     Si       1     MMT1      Si     723	2.100000	28.085380
724     Op       1     MMT1      Op     724	-1.050000	15.999410
725     Op       1     MMT1      Op     725	-1.050000	15.999410
726   Ohmg       1     MMT1    Ohmg     726	-1.080833	15.999410
727     Ob       1     MMT1      Ob     727	-1.050000	15.999410
728     Ob       1     MMT1      Ob     728	-1.050000	15.999410
729     Ob       1     MMT1      Ob     729	-1.050000	15.999410
730      H       1     MMT1       H     730	0.425000	1.007940
731     Al       1     MMT1      Al     731	1.575000	26.981540
732     Si       1     MMT1      Si     732	2.100000	28.085380
733     Si       1     MMT1      Si     733	2.100000	28.085380
734    Omg       1     MMT1     Omg     734	-1.180833	15.999410
735    Omg       1     MMT1     Omg     735	-1.180833	15.999410
736   Ohmg       1     MMT1    Ohmg     736	-1.080833	15.999410
737     Ob       1     MMT1      Ob     737	-1.050000	15.999410
738     Ob       1     MMT1      Ob     738	-1.050000	15.999410
739     Ob       1     MMT1      Ob     739	-1.050000	15.999410
740      H       1     MMT1       H     740	0.425000	1.007940
741    Mgo       1     MMT1     Mgo     741	1.360000	24.305000
742     Si       1     MMT1      Si     742	2.100000	28.085380
743     Si       1     MMT1      Si     743	2.100000	28.085380
744     Op       1     MMT1      Op     744	-1.050000	15.999410
745    Omg       1     MMT1     Omg     745	-1.180833	15.999410
746   Ohmg       1     MMT1    Ohmg     746	-1.080833	15.999410
747     Ob       1     MMT1      Ob     747	-1.050000	15.999410
748     Ob       1     MMT1      Ob     748	-1.050000	15.999410
749     Ob       1     MMT1      Ob     749	-1.050000	15.999410
750      H       1     MMT1       H     750	0.425000	1.007940
751    Mgo       1     MMT1     Mgo     751	1.360000	24.305000
752     Si       1     MMT1      Si     752	2.100000	28.085380
753     Si       1     MMT1      Si     753	2.100000	28.085380
754     Op       1     MMT1      Op     754	-1.050000	15.999410
755     Op       1     MMT1      Op     755	-1.050000	15.999410
756   Ohmg       1     MMT1    Ohmg     756	-1.080833	15.999410
757     Ob       1     MMT1      Ob     757	-1.050000	15.999410
758     Ob       1     MMT1      Ob     758	-1.050000	15.999410
759     Ob       1     MMT1      Ob     759	-1.050000	15.999410
760      H       1     MMT1       H     760	0.425000	1.007940
761    Mgo       1     MMT1     Mgo     761	1.360000	24.305000
762     Si       1     MMT1      Si     762	2.100000	28.085380
763     Si       1     MMT1      Si     763	2.100000	28.085380
764    Omg       1     MMT1     Omg     764	-1.180833	15.999410
765    Omg       1     MMT1     Omg     765	-1.180833	15.999410
766   Ohmg       1     MMT1    Ohmg     766	-1.080833	15.999410
767     Ob       1     MMT1      Ob     767	-1.050000	15.999410
768     Ob       1     MMT1      Ob     768	-1.050000	15.999410
769     Ob       1     MMT1      Ob     769	-1.050000	15.999410
770      H       1     MMT1       H     770	0.425000	1.007940
771     Al       1     MMT1      Al     771	1.575000	26.981540
772     Si       1     MMT1      Si     772	2.100000	28.085380
773     Si       1     MMT1      Si     773	2.100000	28.085380
774     Op       1     MMT1      Op     774	-1.050000	15.999410
775     Op       1     MMT1      Op     775	-1.050000	15.999410
776     Oh       1     MMT1      Oh     776	-0.950000	15.999410
777     Ob       1     MMT1      Ob     777	-1.050000	15.999410
778     Ob       1     MMT1      Ob     778	-1.050000	15.999410
779     Ob       1     MMT1      Ob     779	-1.050000	15.999410
780      H       1     MMT1       H     780	0.425000	1.007940
781     Al       1     MMT1      Al     781	1.575000	26.981540
782     Si       1     MMT1      Si     782	2.100000	28.085380
783     Si       1     MMT1      Si     783	2.100000	28.085380
784    Omg       1     MMT1     Omg     784	-1.180833	15.999410
785     Op       1     MMT1      Op     785	-1.050000	15.999410
786     Oh       1     MMT1      Oh     786	-0.950000	15.999410
787     Ob       1     MMT1      Ob     787	-1.050000	15.999410
788     Ob       1     MMT1      Ob     788	-1.050000	15.999410
789     Ob       1     MMT1      Ob     789	-1.050000	15.999410
790      H       1     MMT1       H     790	0.425000	1.007940
791     Al       1     MMT1      Al     791	1.575000	26.981540
792     Si       1     MMT1      Si     792	2.100000	28.085380
793     Si       1     MMT1      Si     793	2.100000	28.085380
794     Op       1     MMT1      Op     794	-1.050000	15.999410
795    Omg       1     MMT1     Omg     795	-1.180833	15.999410
796   Ohmg       1     MMT1    Ohmg     796	-1.080833	15.999410
797     Ob       1     MMT1      Ob     797	-1.050000	15.999410
798     Ob       1     MMT1      Ob     798	-1.050000	15.999410
799     Ob       1     MMT1      Ob     799	-1.050000	15.999410
800      H       1     MMT1       H     800	0.425000	1.007940
801     Al       1     MMT1      Al     801	1.575000	26.981540
802     Si       1     MMT1      Si     802	2.100000	28.085380
803     Si       1     MMT1      Si     803	2.100000	28.085380
804     Op       1     MMT1      Op     804	-1.050000	15.999410
805    Omg       1     MMT1     Omg     805	-1.180833	15.999410
806     Oh       1     MMT1      Oh     806	-0.950000	15.999410
807     Ob       1     MMT1      Ob     807	-1.050000	15.999410
808     Ob       1     MMT1      Ob     808	-1.050000	15.999410
809     Ob       1     MMT1      Ob     809	-1.050000	15.999410
810      H       1     MMT1       H     810	0.425000	1.007940
811     Al       1     MMT1      Al     811	1.575000	26.981540
812     Si       1     MMT1      Si     812	2.100000	28.085380
813     Si       1     MMT1      Si     813	2.100000	28.085380
814     Op       1     MMT1      Op     814	-1.050000	15.999410
815    Omg       1     MMT1     Omg     815	-1.180833	15.999410
816   Ohmg       1     MMT1    Ohmg     816	-1.080833	15.999410
817     Ob       1     MMT1      Ob     817	-1.050000	15.999410
818     Ob       1     MMT1      Ob     818	-1.050000	15.999410
819     Ob       1     MMT1      Ob     819	-1.050000	15.999410
820      H       1     MMT1       H     820	0.425000	1.007940
821    Mgo       1     MMT1     Mgo     821	1.360000	24.305000
822     Si       1     MMT1      Si     822	2.100000	28.085380
823     Si       1     MMT1      Si     823	2.100000	28.085380
824     Op       1     MMT1      Op     824	-1.050000	15.999410
825    Omg       1     MMT1     Omg     825	-1.180833	15.999410
826   Ohmg       1     MMT1    Ohmg     826	-1.080833	15.999410
827     Ob       1     MMT1      Ob     827	-1.050000	15.999410
828     Ob       1     MMT1      Ob     828	-1.050000	15.999410
829     Ob       1     MMT1      Ob     829	-1.050000	15.999410
830      H       1     MMT1       H     830	0.425000	1.007940
831     Al       1     MMT1      Al     831	1.575000	26.981540
832     Si       1     MMT1      Si     832	2.100000	28.085380
833     Si       1     MMT1      Si     833	2.100000	28.085380
834    Omg       1     MMT1     Omg     834	-1.180833	15.999410
835    Omg       1     MMT1     Omg     835	-1.180833	15.999410
836     Oh       1     MMT1      Oh     836	-0.950000	15.999410
837     Ob       1     MMT1      Ob     837	-1.050000	15.999410
838     Ob       1     MMT1      Ob     838	-1.050000	15.999410
839     Ob       1     MMT1      Ob     839	-1.050000	15.999410
840      H       1     MMT1       H     840	0.425000	1.007940
841     Al       1     MMT1      Al     841	1.575000	26.981540
842     Si       1     MMT1      Si     842	2.100000	28.085380
843     Si       1     MMT1      Si     843	2.100000	28.085380
844     Op       1     MMT1      Op     844	-1.050000	15.999410
845    Omg       1     MMT1     Omg     845	-1.180833	15.999410
846   Ohmg       1     MMT1    Ohmg     846	-1.080833	15.999410
847     Ob       1     MMT1      Ob     847	-1.050000	15.999410
848     Ob       1     MMT1      Ob     848	-1.050000	15.999410
849     Ob       1     MMT1      Ob     849	-1.050000	15.999410
850      H       1     MMT1       H     850	0.425000	1.007940
851     Al       1     MMT1      Al     851	1.575000	26.981540
852     Si       1     MMT1      Si     852	2.100000	28.085380
853     Si       1     MMT1      Si     853	2.100000	28.085380
854    Omg       1     MMT1     Omg     854	-1.180833	15.999410
855     Op       1     MMT1      Op     855	-1.050000	15.999410
856     Oh       1     MMT1      Oh     856	-0.950000	15.999410
857     Ob       1     MMT1      Ob     857	-1.050000	15.999410
858     Ob       1     MMT1      Ob     858	-1.050000	15.999410
859     Ob       1     MMT1      Ob     859	-1.050000	15.999410
860      H       1     MMT1       H     860	0.425000	1.007940
861     Al       1     MMT1      Al     861	1.575000	26.981540
862     Si       1     MMT1      Si     862	2.100000	28.085380
863     Si       1     MMT1      Si     863	2.100000	28.085380
864     Op       1     MMT1      Op     864	-1.050000	15.999410
865     Op       1     MMT1      Op     865	-1.050000	15.999410
866     Oh       1     MMT1      Oh     866	-0.950000	15.999410
867     Ob       1     MMT1      Ob     867	-1.050000	15.999410
868     Ob       1     MMT1      Ob     868	-1.050000	15.999410
869     Ob       1     MMT1      Ob     869	-1.050000	15.999410
870      H       1     MMT1       H     870	0.425000	1.007940
871    Mgo       1     MMT1     Mgo     871	1.360000	24.305000
872     Si       1     MMT1      Si     872	2.100000	28.085380
873     Si       1     MMT1      Si     873	2.100000	28.085380
874    Omg       1     MMT1     Omg     874	-1.180833	15.999410
875    Omg       1     MMT1     Omg     875	-1.180833	15.999410
876   Ohmg       1     MMT1    Ohmg     876	-1.080833	15.999410
877     Ob       1     MMT1      Ob     877	-1.050000	15.999410
878     Ob       1     MMT1      Ob     878	-1.050000	15.999410
879     Ob       1     MMT1      Ob     879	-1.050000	15.999410
880      H       1     MMT1       H     880	0.425000	1.007940
881     Al       1     MMT1      Al     881	1.575000	26.981540
882     Si       1     MMT1      Si     882	2.100000	28.085380
883     Si       1     MMT1      Si     883	2.100000	28.085380
884    Omg       1     MMT1     Omg     884	-1.180833	15.999410
885     Op       1     MMT1      Op     885	-1.050000	15.999410
886   Ohmg       1     MMT1    Ohmg     886	-1.080833	15.999410
887     Ob       1     MMT1      Ob     887	-1.050000	15.999410
888     Ob       1     MMT1      Ob     888	-1.050000	15.999410
889     Ob       1     MMT1      Ob     889	-1.050000	15.999410
890      H       1     MMT1       H     890	0.425000	1.007940
891     Al       1     MMT1      Al     891	1.575000	26.981540
892     Si       1     MMT1      Si     892	2.100000	28.085380
893     Si       1     MMT1      Si     893	2.100000	28.085380
894    Omg       1     MMT1     Omg     894	-1.180833	15.999410
895     Op       1     MMT1      Op     895	-1.050000	15.999410
896   Ohmg       1     MMT1    Ohmg     896	-1.080833	15.999410
897     Ob       1     MMT1      Ob     897	-1.050000	15.999410
898     Ob       1     MMT1      Ob     898	-1.050000	15.999410
899     Ob       1     MMT1      Ob     899	-1.050000	15.999410
900      H       1     MMT1       H     900	0.425000	1.007940
901     Al       1     MMT1      Al     901	1.575000	26.981540
902     Si       1     MMT1      Si     902	2.100000	28.085380
903     Si       1     MMT1      Si     903	2.100000	28.085380
904    Omg       1     MMT1     Omg     904	-1.180833	15.999410
905     Op       1     MMT1      Op     905	-1.050000	15.999410
906   Ohmg       1     MMT1    Ohmg     906	-1.080833	15.999410
907     Ob       1     MMT1      Ob     907	-1.050000	15.999410
908     Ob       1     MMT1      Ob     908	-1.050000	15.999410
909     Ob       1     MMT1      Ob     909	-1.050000	15.999410
910      H       1     MMT1       H     910	0.425000	1.007940
911    Mgo       1     MMT1     Mgo     911	1.360000	24.305000
912     Si       1     MMT1      Si     912	2.100000	28.085380
913     Si       1     MMT1      Si     913	2.100000	28.085380
914    Omg       1     MMT1     Omg     914	-1.180833	15.999410
915     Op       1     MMT1      Op     915	-1.050000	15.999410
916   Ohmg       1     MMT1    Ohmg     916	-1.080833	15.999410
917     Ob       1     MMT1      Ob     917	-1.050000	15.999410
918     Ob       1     MMT1      Ob     918	-1.050000	15.999410
919     Ob       1     MMT1      Ob     919	-1.050000	15.999410
920      H       1     MMT1       H     920	0.425000	1.007940
921    Mgo       1     MMT1     Mgo     921	1.360000	24.305000
922     Si       1     MMT1      Si     922	2.100000	28.085380
923     Si       1     MMT1      Si     923	2.100000	28.085380
924    Omg       1     MMT1     Omg     924	-1.180833	15.999410
925    Omg       1     MMT1     Omg     925	-1.180833	15.999410
926   Ohmg       1     MMT1    Ohmg     926	-1.080833	15.999410
927     Ob       1     MMT1      Ob     927	-1.050000	15.999410
928     Ob       1     MMT1      Ob     928	-1.050000	15.999410
929     Ob       1     MMT1      Ob     929	-1.050000	15.999410
930      H       1     MMT1       H     930	0.425000	1.007940
931    Mgo       1     MMT1     Mgo     931	1.360000	24.305000
932     Si       1     MMT1      Si     932	2.100000	28.085380
933     Si       1     MMT1      Si     933	2.100000	28.085380
934    Omg       1     MMT1     Omg     934	-1.180833	15.999410
935    Omg       1     MMT1     Omg     935	-1.180833	15.999410
936   Ohmg       1     MMT1    Ohmg     936	-1.080833	15.999410
937     Ob       1     MMT1      Ob     937	-1.050000	15.999410
938     Ob       1     MMT1      Ob     938	-1.050000	15.999410
939     Ob       1     MMT1      Ob     939	-1.050000	15.999410
940      H       1     MMT1       H     940	0.425000	1.007940
941     Al       1     MMT1      Al     941	1.575000	26.981540
942     Si       1     MMT1      Si     942	2.100000	28.085380
943     Si       1     MMT1      Si     943	2.100000	28.085380
944    Omg       1     MMT1     Omg     944	-1.180833	15.999410
945    Omg       1     MMT1     Omg     945	-1.180833	15.999410
946   Ohmg       1     MMT1    Ohmg     946	-1.080833	15.999410
947     Ob       1     MMT1      Ob     947	-1.050000	15.999410
948     Ob       1     MMT1      Ob     948	-1.050000	15.999410
949     Ob       1     MMT1      Ob     949	-1.050000	15.999410
950      H       1     MMT1       H     950	0.425000	1.007940
951     Al       1     MMT1      Al     951	1.575000	26.981540
952     Si       1     MMT1      Si     952	2.100000	28.085380
953     Si       1     MMT1      Si     953	2.100000	28.085380
954    Omg       1     MMT1     Omg     954	-1.180833	15.999410
955    Omg       1     MMT1     Omg     955	-1.180833	15.999410
956   Ohmg       1     MMT1    Ohmg     956	-1.080833	15.999410
957     Ob       1     MMT1      Ob     957	-1.050000	15.999410
958     Ob       1     MMT1      Ob     958	-1.050000	15.999410
959     Ob       1     MMT1      Ob     959	-1.050000	15.999410
960      H       1     MMT1       H     960	0.425000	1.007940
961    Mgo       1     MMT1     Mgo     961	1.360000	24.305000
962     Si       1     MMT1      Si     962	2.100000	28.085380
963     Si       1     MMT1      Si     963	2.100000	28.085380
964    Omg       1     MMT1     Omg     964	-1.180833	15.999410
965    Omg       1     MMT1     Omg     965	-1.180833	15.999410
966   Ohmg       1     MMT1    Ohmg     966	-1.080833	15.999410
967     Ob       1     MMT1      Ob     967	-1.050000	15.999410
968     Ob       1     MMT1      Ob     968	-1.050000	15.999410
969     Ob       1     MMT1      Ob     969	-1.050000	15.999410
970      H       1     MMT1       H     970	0.425000	1.007940
971     Al       1     MMT1      Al     971	1.575000	26.981540
972     Si       1     MMT1      Si     972	2.100000	28.085380
973     Si       1     MMT1      Si     973	2.100000	28.085380
974     Op       1     MMT1      Op     974	-1.050000	15.999410
975     Op       1     MMT1      Op     975	-1.050000	15.999410
976   Ohmg       1     MMT1    Ohmg     976	-1.080833	15.999410
977     Ob       1     MMT1      Ob     977	-1.050000	15.999410
978     Ob       1     MMT1      Ob     978	-1.050000	15.999410
979     Ob       1     MMT1      Ob     979	-1.050000	15.999410
980      H       1     MMT1       H     980	0.425000	1.007940
981     Al       1     MMT1      Al     981	1.575000	26.981540
982     Si       1     MMT1      Si     982	2.100000	28.085380
983     Si       1     MMT1      Si     983	2.100000	28.085380
984    Omg       1     MMT1     Omg     984	-1.180833	15.999410
985     Op       1     MMT1      Op     985	-1.050000	15.999410
986   Ohmg       1     MMT1    Ohmg     986	-1.080833	15.999410
987     Ob       1     MMT1      Ob     987	-1.050000	15.999410
988     Ob       1     MMT1      Ob     988	-1.050000	15.999410
989     Ob       1     MMT1      Ob     989	-1.050000	15.999410
990      H       1     MMT1       H     990	0.425000	1.007940
991     Al       1     MMT1      Al     991	1.575000	26.981540
992     Si       1     MMT1      Si     992	2.100000	28.085380
993     Si       1     MMT1      Si     993	2.100000	28.085380
994    Omg       1     MMT1     Omg     994	-1.180833	15.999410
995    Omg       1     MMT1     Omg     995	-1.180833	15.999410
996   Ohmg       1     MMT1    Ohmg     996	-1.080833	15.999410
997     Ob       1     MMT1      Ob     997	-1.050000	15.999410
998     Ob       1     MMT1      Ob     998	-1.050000	15.999410
999     Ob       1     MMT1      Ob     999	-1.050000	15.999410
1000     H       1     MMT1       H    1000	0.425000	1.007940
1001    Al       1     MMT1      Al    1001	1.575000	26.981540
1002    Si       1     MMT1      Si    1002	2.100000	28.085380
1003    Si       1     MMT1      Si    1003	2.100000	28.085380
1004    Op       1     MMT1      Op    1004	-1.050000	15.999410
1005   Omg       1     MMT1     Omg    1005	-1.180833	15.999410
1006    Oh       1     MMT1      Oh    1006	-0.950000	15.999410
1007    Ob       1     MMT1      Ob    1007	-1.050000	15.999410
1008    Ob       1     MMT1      Ob    1008	-1.050000	15.999410
1009    Ob       1     MMT1      Ob    1009	-1.050000	15.999410
1010     H       1     MMT1       H    1010	0.425000	1.007940
1011   Mgo       1     MMT1     Mgo    1011	1.360000	24.305000
1012    Si       1     MMT1      Si    1012	2.100000	28.085380
1013    Si       1     MMT1      Si    1013	2.100000	28.085380
1014   Omg       1     MMT1     Omg    1014	-1.180833	15.999410
1015   Omg       1     MMT1     Omg    1015	-1.180833	15.999410
1016    Oh       1     MMT1      Oh    1016	-0.950000	15.999410
1017    Ob       1     MMT1      Ob    1017	-1.050000	15.999410
1018    Ob       1     MMT1      Ob    1018	-1.050000	15.999410
1019    Ob       1     MMT1      Ob    1019	-1.050000	15.999410
1020     H       1     MMT1       H    1020	0.425000	1.007940
1021    Al       1     MMT1      Al    1021	1.575000	26.981540
1022    Si       1     MMT1      Si    1022	2.100000	28.085380
1023    Si       1     MMT1      Si    1023	2.100000	28.085380
1024    Op       1     MMT1      Op    1024	-1.050000	15.999410
1025   Omg       1     MMT1     Omg    1025	-1.180833	15.999410
1026    Oh       1     MMT1      Oh    1026	-0.950000	15.999410
1027    Ob       1     MMT1      Ob    1027	-1.050000	15.999410
1028    Ob       1     MMT1      Ob    1028	-1.050000	15.999410
1029    Ob       1     MMT1      Ob    1029	-1.050000	15.999410
1030     H       1     MMT1       H    1030	0.425000	1.007940
1031    Al       1     MMT1      Al    1031	1.575000	26.981540
1032    Si       1     MMT1      Si    1032	2.100000	28.085380
1033    Si       1     MMT1      Si    1033	2.100000	28.085380
1034   Omg       1     MMT1     Omg    1034	-1.180833	15.999410
1035   Omg       1     MMT1     Omg    1035	-1.180833	15.999410
1036    Oh       1     MMT1      Oh    1036	-0.950000	15.999410
1037    Ob       1     MMT1      Ob    1037	-1.050000	15.999410
1038    Ob       1     MMT1      Ob    1038	-1.050000	15.999410
1039    Ob       1     MMT1      Ob    1039	-1.050000	15.999410
1040     H       1     MMT1       H    1040	0.425000	1.007940
1041    Al       1     MMT1      Al    1041	1.575000	26.981540
1042    Si       1     MMT1      Si    1042	2.100000	28.085380
1043    Si       1     MMT1      Si    1043	2.100000	28.085380
1044    Op       1     MMT1      Op    1044	-1.050000	15.999410
1045    Op       1     MMT1      Op    1045	-1.050000	15.999410
1046  Ohmg       1     MMT1    Ohmg    1046	-1.080833	15.999410
1047    Ob       1     MMT1      Ob    1047	-1.050000	15.999410
1048    Ob       1     MMT1      Ob    1048	-1.050000	15.999410
1049    Ob       1     MMT1      Ob    1049	-1.050000	15.999410
1050     H       1     MMT1       H    1050	0.425000	1.007940
1051    Al       1     MMT1      Al    1051	1.575000	26.981540
1052    Si       1     MMT1      Si    1052	2.100000	28.085380
1053    Si       1     MMT1      Si    1053	2.100000	28.085380
1054   Omg       1     MMT1     Omg    1054	-1.180833	15.999410
1055    Op       1     MMT1      Op    1055	-1.050000	15.999410
1056    Oh       1     MMT1      Oh    1056	-0.950000	15.999410
1057    Ob       1     MMT1      Ob    1057	-1.050000	15.999410
1058    Ob       1     MMT1      Ob    1058	-1.050000	15.999410
1059    Ob       1     MMT1      Ob    1059	-1.050000	15.999410
1060     H       1     MMT1       H    1060	0.425000	1.007940
1061    Al       1     MMT1      Al    1061	1.575000	26.981540
1062    Si       1     MMT1      Si    1062	2.100000	28.085380
1063    Si       1     MMT1      Si    1063	2.100000	28.085380
1064    Op       1     MMT1      Op    1064	-1.050000	15.999410
1065    Op       1     MMT1      Op    1065	-1.050000	15.999410
1066    Oh       1     MMT1      Oh    1066	-0.950000	15.999410
1067    Ob       1     MMT1      Ob    1067	-1.050000	15.999410
1068    Ob       1     MMT1      Ob    1068	-1.050000	15.999410
1069    Ob       1     MMT1      Ob    1069	-1.050000	15.999410
1070     H       1     MMT1       H    1070	0.425000	1.007940
1071   Mgo       1     MMT1     Mgo    1071	1.360000	24.305000
1072    Si       1     MMT1      Si    1072	2.100000	28.085380
1073    Si       1     MMT1      Si    1073	2.100000	28.085380
1074    Op       1     MMT1      Op    1074	-1.050000	15.999410
1075    Op       1     MMT1      Op    1075	-1.050000	15.999410
1076  Ohmg       1     MMT1    Ohmg    1076	-1.080833	15.999410
1077    Ob       1     MMT1      Ob    1077	-1.050000	15.999410
1078    Ob       1     MMT1      Ob    1078	-1.050000	15.999410
1079    Ob       1     MMT1      Ob    1079	-1.050000	15.999410
1080     H       1     MMT1       H    1080	0.425000	1.007940
1081    Al       1     MMT1      Al    1081	1.575000	26.981540
1082    Si       1     MMT1      Si    1082	2.100000	28.085380
1083    Si       1     MMT1      Si    1083	2.100000	28.085380
1084    Op       1     MMT1      Op    1084	-1.050000	15.999410
1085   Omg       1     MMT1     Omg    1085	-1.180833	15.999410
1086    Oh       1     MMT1      Oh    1086	-0.950000	15.999410
1087    Ob       1     MMT1      Ob    1087	-1.050000	15.999410
1088    Ob       1     MMT1      Ob    1088	-1.050000	15.999410
1089    Ob       1     MMT1      Ob    1089	-1.050000	15.999410
1090     H       1     MMT1       H    1090	0.425000	1.007940
1091    Al       1     MMT1      Al    1091	1.575000	26.981540
1092    Si       1     MMT1      Si    1092	2.100000	28.085380
1093    Si       1     MMT1      Si    1093	2.100000	28.085380
1094    Op       1     MMT1      Op    1094	-1.050000	15.999410
1095    Op       1     MMT1      Op    1095	-1.050000	15.999410
1096    Oh       1     MMT1      Oh    1096	-0.950000	15.999410
1097    Ob       1     MMT1      Ob    1097	-1.050000	15.999410
1098    Ob       1     MMT1      Ob    1098	-1.050000	15.999410
1099    Ob       1     MMT1      Ob    1099	-1.050000	15.999410
1100     H       1     MMT1       H    1100	0.425000	1.007940
1101    Al       1     MMT1      Al    1101	1.575000	26.981540
1102    Si       1     MMT1      Si    1102	2.100000	28.085380
1103    Si       1     MMT1      Si    1103	2.100000	28.085380
1104    Op       1     MMT1      Op    1104	-1.050000	15.999410
1105    Op       1     MMT1      Op    1105	-1.050000	15.999410
1106    Oh       1     MMT1      Oh    1106	-0.950000	15.999410
1107    Ob       1     MMT1      Ob    1107	-1.050000	15.999410
1108    Ob       1     MMT1      Ob    1108	-1.050000	15.999410
1109    Ob       1     MMT1      Ob    1109	-1.050000	15.999410
1110     H       1     MMT1       H    1110	0.425000	1.007940
1111    Al       1     MMT1      Al    1111	1.575000	26.981540
1112    Si       1     MMT1      Si    1112	2.100000	28.085380
1113    Si       1     MMT1      Si    1113	2.100000	28.085380
1114   Omg       1     MMT1     Omg    1114	-1.180833	15.999410
1115   Omg       1     MMT1     Omg    1115	-1.180833	15.999410
1116    Oh       1     MMT1      Oh    1116	-0.950000	15.999410
1117    Ob       1     MMT1      Ob    1117	-1.050000	15.999410
1118    Ob       1     MMT1      Ob    1118	-1.050000	15.999410
1119    Ob       1     MMT1      Ob    1119	-1.050000	15.999410
1120     H       1     MMT1       H    1120	0.425000	1.007940
1121    Al       1     MMT1      Al    1121	1.575000	26.981540
1122    Si       1     MMT1      Si    1122	2.100000	28.085380
1123    Si       1     MMT1      Si    1123	2.100000	28.085380
1124    Op       1     MMT1      Op    1124	-1.050000	15.999410
1125    Op       1     MMT1      Op    1125	-1.050000	15.999410
1126  Ohmg       1     MMT1    Ohmg    1126	-1.080833	15.999410
1127    Ob       1     MMT1      Ob    1127	-1.050000	15.999410
1128    Ob       1     MMT1      Ob    1128	-1.050000	15.999410
1129    Ob       1     MMT1      Ob    1129	-1.050000	15.999410
1130     H       1     MMT1       H    1130	0.425000	1.007940
1131    Al       1     MMT1      Al    1131	1.575000	26.981540
1132    Si       1     MMT1      Si    1132	2.100000	28.085380
1133    Si       1     MMT1      Si    1133	2.100000	28.085380
1134   Omg       1     MMT1     Omg    1134	-1.180833	15.999410
1135   Omg       1     MMT1     Omg    1135	-1.180833	15.999410
1136  Ohmg       1     MMT1    Ohmg    1136	-1.080833	15.999410
1137    Ob       1     MMT1      Ob    1137	-1.050000	15.999410
1138    Ob       1     MMT1      Ob    1138	-1.050000	15.999410
1139    Ob       1     MMT1      Ob    1139	-1.050000	15.999410
1140     H       1     MMT1       H    1140	0.425000	1.007940
1141   Mgo       1     MMT1     Mgo    1141	1.360000	24.305000
1142    Si       1     MMT1      Si    1142	2.100000	28.085380
1143    Si       1     MMT1      Si    1143	2.100000	28.085380
1144    Op       1     MMT1      Op    1144	-1.050000	15.999410
1145   Omg       1     MMT1     Omg    1145	-1.180833	15.999410
1146  Ohmg       1     MMT1    Ohmg    1146	-1.080833	15.999410
1147    Ob       1     MMT1      Ob    1147	-1.050000	15.999410
1148    Ob       1     MMT1      Ob    1148	-1.050000	15.999410
1149    Ob       1     MMT1      Ob    1149	-1.050000	15.999410
1150     H       1     MMT1       H    1150	0.425000	1.007940
1151   Mgo       1     MMT1     Mgo    1151	1.360000	24.305000
1152    Si       1     MMT1      Si    1152	2.100000	28.085380
1153    Si       1     MMT1      Si    1153	2.100000	28.085380
1154    Op       1     MMT1      Op    1154	-1.050000	15.999410
1155    Op       1     MMT1      Op    1155	-1.050000	15.999410
1156  Ohmg       1     MMT1    Ohmg    1156	-1.080833	15.999410
1157    Ob       1     MMT1      Ob    1157	-1.050000	15.999410
1158    Ob       1     MMT1      Ob    1158	-1.050000	15.999410
1159    Ob       1     MMT1      Ob    1159	-1.050000	15.999410
1160     H       1     MMT1       H    1160	0.425000	1.007940
1161    Al       1     MMT1      Al    1161	1.575000	26.981540
1162    Si       1     MMT1      Si    1162	2.100000	28.085380
1163    Si       1     MMT1      Si    1163	2.100000	28.085380
1164   Omg       1     MMT1     Omg    1164	-1.180833	15.999410
1165    Op       1     MMT1      Op    1165	-1.050000	15.999410
1166    Oh       1     MMT1      Oh    1166	-0.950000	15.999410
1167    Ob       1     MMT1      Ob    1167	-1.050000	15.999410
1168    Ob       1     MMT1      Ob    1168	-1.050000	15.999410
1169    Ob       1     MMT1      Ob    1169	-1.050000	15.999410
1170     H       1     MMT1       H    1170	0.425000	1.007940
1171    Al       1     MMT1      Al    1171	1.575000	26.981540
1172    Si       1     MMT1      Si    1172	2.100000	28.085380
1173    Si       1     MMT1      Si    1173	2.100000	28.085380
1174    Op       1     MMT1      Op    1174	-1.050000	15.999410
1175   Omg       1     MMT1     Omg    1175	-1.180833	15.999410
1176  Ohmg       1     MMT1    Ohmg    1176	-1.080833	15.999410
1177    Ob       1     MMT1      Ob    1177	-1.050000	15.999410
1178    Ob       1     MMT1      Ob    1178	-1.050000	15.999410
1179    Ob       1     MMT1      Ob    1179	-1.050000	15.999410
1180     H       1     MMT1       H    1180	0.425000	1.007940
1181   Mgo       1     MMT1     Mgo    1181	1.360000	24.305000
1182    Si       1     MMT1      Si    1182	2.100000	28.085380
1183    Si       1     MMT1      Si    1183	2.100000	28.085380
1184   Omg       1     MMT1     Omg    1184	-1.180833	15.999410
1185   Omg       1     MMT1     Omg    1185	-1.180833	15.999410
1186  Ohmg       1     MMT1    Ohmg    1186	-1.080833	15.999410
1187    Ob       1     MMT1      Ob    1187	-1.050000	15.999410
1188    Ob       1     MMT1      Ob    1188	-1.050000	15.999410
1189    Ob       1     MMT1      Ob    1189	-1.050000	15.999410
1190     H       1     MMT1       H    1190	0.425000	1.007940
1191    Al       1     MMT1      Al    1191	1.575000	26.981540
1192    Si       1     MMT1      Si    1192	2.100000	28.085380
1193    Si       1     MMT1      Si    1193	2.100000	28.085380
1194    Op       1     MMT1      Op    1194	-1.050000	15.999410
1195    Op       1     MMT1      Op    1195	-1.050000	15.999410
1196    Oh       1     MMT1      Oh    1196	-0.950000	15.999410
1197    Ob       1     MMT1      Ob    1197	-1.050000	15.999410
1198    Ob       1     MMT1      Ob    1198	-1.050000	15.999410
1199    Ob       1     MMT1      Ob    1199	-1.050000	15.999410
1200     H       1     MMT1       H    1200	0.425000	1.007940
1201    Al       1     MMT1      Al    1201	1.575000	26.981540
1202    Si       1     MMT1      Si    1202	2.100000	28.085380
1203    Si       1     MMT1      Si    1203	2.100000	28.085380
1204   Omg       1     MMT1     Omg    1204	-1.180833	15.999410
1205    Op       1     MMT1      Op    1205	-1.050000	15.999410
1206    Oh       1     MMT1      Oh    1206	-0.950000	15.999410
1207    Ob       1     MMT1      Ob    1207	-1.050000	15.999410
1208    Ob       1     MMT1      Ob    1208	-1.050000	15.999410
1209    Ob       1     MMT1      Ob    1209	-1.050000	15.999410
1210     H       1     MMT1       H    1210	0.425000	1.007940
1211    Al       1     MMT1      Al    1211	1.575000	26.981540
1212    Si       1     MMT1      Si    1212	2.100000	28.085380
1213    Si       1     MMT1      Si    1213	2.100000	28.085380
1214    Op       1     MMT1      Op    1214	-1.050000	15.999410
1215   Omg       1     MMT1     Omg    1215	-1.180833	15.999410
1216  Ohmg       1     MMT1    Ohmg    1216	-1.080833	15.999410
1217    Ob       1     MMT1      Ob    1217	-1.050000	15.999410
1218    Ob       1     MMT1      Ob    1218	-1.050000	15.999410
1219    Ob       1     MMT1      Ob    1219	-1.050000	15.999410
1220     H       1     MMT1       H    1220	0.425000	1.007940
1221   Mgo       1     MMT1     Mgo    1221	1.360000	24.305000
1222    Si       1     MMT1      Si    1222	2.100000	28.085380
1223    Si       1     MMT1      Si    1223	2.100000	28.085380
1224   Omg       1     MMT1     Omg    1224	-1.180833	15.999410
1225   Omg       1     MMT1     Omg    1225	-1.180833	15.999410
1226  Ohmg       1     MMT1    Ohmg    1226	-1.080833	15.999410
1227    Ob       1     MMT1      Ob    1227	-1.050000	15.999410
1228    Ob       1     MMT1      Ob    1228	-1.050000	15.999410
1229    Ob       1     MMT1      Ob    1229	-1.050000	15.999410
1230     H       1     MMT1       H    1230	0.425000	1.007940
1231    Al       1     MMT1      Al    1231	1.575000	26.981540
1232    Si       1     MMT1      Si    1232	2.100000	28.085380
1233    Si       1     MMT1      Si    1233	2.100000	28.085380
1234    Op       1     MMT1      Op    1234	-1.050000	15.999410
1235    Op       1     MMT1      Op    1235	-1.050000	15.999410
1236    Oh       1     MMT1      Oh    1236	-0.950000	15.999410
1237    Ob       1     MMT1      Ob    1237	-1.050000	15.999410
1238    Ob       1     MMT1      Ob    1238	-1.050000	15.999410
1239    Ob       1     MMT1      Ob    1239	-1.050000	15.999410
1240     H       1     MMT1       H    1240	0.425000	1.007940
1241    Al       1     MMT1      Al    1241	1.575000	26.981540
1242    Si       1     MMT1      Si    1242	2.100000	28.085380
1243    Si       1     MMT1      Si    1243	2.100000	28.085380
1244    Op       1     MMT1      Op    1244	-1.050000	15.999410
1245   Omg       1     MMT1     Omg    1245	-1.180833	15.999410
1246    Oh       1     MMT1      Oh    1246	-0.950000	15.999410
1247    Ob       1     MMT1      Ob    1247	-1.050000	15.999410
1248    Ob       1     MMT1      Ob    1248	-1.050000	15.999410
1249    Ob       1     MMT1      Ob    1249	-1.050000	15.999410
1250     H       1     MMT1       H    1250	0.425000	1.007940
1251    Al       1     MMT1      Al    1251	1.575000	26.981540
1252    Si       1     MMT1      Si    1252	2.100000	28.085380
1253    Si       1     MMT1      Si    1253	2.100000	28.085380
1254    Op       1     MMT1      Op    1254	-1.050000	15.999410
1255    Op       1     MMT1      Op    1255	-1.050000	15.999410
1256    Oh       1     MMT1      Oh    1256	-0.950000	15.999410
1257    Ob       1     MMT1      Ob    1257	-1.050000	15.999410
1258    Ob       1     MMT1      Ob    1258	-1.050000	15.999410
1259    Ob       1     MMT1      Ob    1259	-1.050000	15.999410
1260     H       1     MMT1       H    1260	0.425000	1.007940
1261    Al       1     MMT1      Al    1261	1.575000	26.981540
1262    Si       1     MMT1      Si    1262	2.100000	28.085380
1263    Si       1     MMT1      Si    1263	2.100000	28.085380
1264    Op       1     MMT1      Op    1264	-1.050000	15.999410
1265    Op       1     MMT1      Op    1265	-1.050000	15.999410
1266    Oh       1     MMT1      Oh    1266	-0.950000	15.999410
1267    Ob       1     MMT1      Ob    1267	-1.050000	15.999410
1268    Ob       1     MMT1      Ob    1268	-1.050000	15.999410
1269    Ob       1     MMT1      Ob    1269	-1.050000	15.999410
1270     H       1     MMT1       H    1270	0.425000	1.007940
1271    Al       1     MMT1      Al    1271	1.575000	26.981540
1272    Si       1     MMT1      Si    1272	2.100000	28.085380
1273    Si       1     MMT1      Si    1273	2.100000	28.085380
1274   Omg       1     MMT1     Omg    1274	-1.180833	15.999410
1275   Omg       1     MMT1     Omg    1275	-1.180833	15.999410
1276    Oh       1     MMT1      Oh    1276	-0.950000	15.999410
1277    Ob       1     MMT1      Ob    1277	-1.050000	15.999410
1278    Ob       1     MMT1      Ob    1278	-1.050000	15.999410
1279    Ob       1     MMT1      Ob    1279	-1.050000	15.999410
1280     H       1     MMT1       H    1280	0.425000	1.007940
1281    Al       1     MMT1      Al    1281	1.575000	26.981540
1282    Si       1     MMT1      Si    1282	2.100000	28.085380
1283    Si       1     MMT1      Si    1283	2.100000	28.085380
1284   Omg       1     MMT1     Omg    1284	-1.180833	15.999410
1285    Op       1     MMT1      Op    1285	-1.050000	15.999410
1286  Ohmg       1     MMT1    Ohmg    1286	-1.080833	15.999410
1287    Ob       1     MMT1      Ob    1287	-1.050000	15.999410
1288    Ob       1     MMT1      Ob    1288	-1.050000	15.999410
1289    Ob       1     MMT1      Ob    1289	-1.050000	15.999410
1290     H       1     MMT1       H    1290	0.425000	1.007940
1291    Al       1     MMT1      Al    1291	1.575000	26.981540
1292    Si       1     MMT1      Si    1292	2.100000	28.085380
1293    Si       1     MMT1      Si    1293	2.100000	28.085380
1294   Omg       1     MMT1     Omg    1294	-1.180833	15.999410
1295    Op       1     MMT1      Op    1295	-1.050000	15.999410
1296  Ohmg       1     MMT1    Ohmg    1296	-1.080833	15.999410
1297    Ob       1     MMT1      Ob    1297	-1.050000	15.999410
1298    Ob       1     MMT1      Ob    1298	-1.050000	15.999410
1299    Ob       1     MMT1      Ob    1299	-1.050000	15.999410
1300     H       1     MMT1       H    1300	0.425000	1.007940
1301    Al       1     MMT1      Al    1301	1.575000	26.981540
1302    Si       1     MMT1      Si    1302	2.100000	28.085380
1303    Si       1     MMT1      Si    1303	2.100000	28.085380
1304   Omg       1     MMT1     Omg    1304	-1.180833	15.999410
1305    Op       1     MMT1      Op    1305	-1.050000	15.999410
1306  Ohmg       1     MMT1    Ohmg    1306	-1.080833	15.999410
1307    Ob       1     MMT1      Ob    1307	-1.050000	15.999410
1308    Ob       1     MMT1      Ob    1308	-1.050000	15.999410
1309    Ob       1     MMT1      Ob    1309	-1.050000	15.999410
1310     H       1     MMT1       H    1310	0.425000	1.007940
1311   Mgo       1     MMT1     Mgo    1311	1.360000	24.305000
1312    Si       1     MMT1      Si    1312	2.100000	28.085380
1313    Si       1     MMT1      Si    1313	2.100000	28.085380
1314   Omg       1     MMT1     Omg    1314	-1.180833	15.999410
1315    Op       1     MMT1      Op    1315	-1.050000	15.999410
1316  Ohmg       1     MMT1    Ohmg    1316	-1.080833	15.999410
1317    Ob       1     MMT1      Ob    1317	-1.050000	15.999410
1318    Ob       1     MMT1      Ob    1318	-1.050000	15.999410
1319    Ob       1     MMT1      Ob    1319	-1.050000	15.999410
1320     H       1     MMT1       H    1320	0.425000	1.007940
1321    Al       1     MMT1      Al    1321	1.575000	26.981540
1322    Si       1     MMT1      Si    1322	2.100000	28.085380
1323    Si       1     MMT1      Si    1323	2.100000	28.085380
1324    Op       1     MMT1      Op    1324	-1.050000	15.999410
1325    Op       1     MMT1      Op    1325	-1.050000	15.999410
1326    Oh       1     MMT1      Oh    1326	-0.950000	15.999410
1327    Ob       1     MMT1      Ob    1327	-1.050000	15.999410
1328    Ob       1     MMT1      Ob    1328	-1.050000	15.999410
1329    Ob       1     MMT1      Ob    1329	-1.050000	15.999410
1330     H       1     MMT1       H    1330	0.425000	1.007940
1331   Mgo       1     MMT1     Mgo    1331	1.360000	24.305000
1332    Si       1     MMT1      Si    1332	2.100000	28.085380
1333    Si       1     MMT1      Si    1333	2.100000	28.085380
1334   Omg       1     MMT1     Omg    1334	-1.180833	15.999410
1335   Omg       1     MMT1     Omg    1335	-1.180833	15.999410
1336    Oh       1     MMT1      Oh    1336	-0.950000	15.999410
1337    Ob       1     MMT1      Ob    1337	-1.050000	15.999410
1338    Ob       1     MMT1      Ob    1338	-1.050000	15.999410
1339    Ob       1     MMT1      Ob    1339	-1.050000	15.999410
1340     H       1     MMT1       H    1340	0.425000	1.007940
1341    Al       1     MMT1      Al    1341	1.575000	26.981540
1342    Si       1     MMT1      Si    1342	2.100000	28.085380
1343    Si       1     MMT1      Si    1343	2.100000	28.085380
1344    Op       1     MMT1      Op    1344	-1.050000	15.999410
1345   Omg       1     MMT1     Omg    1345	-1.180833	15.999410
1346    Oh       1     MMT1      Oh    1346	-0.950000	15.999410
1347    Ob       1     MMT1      Ob    1347	-1.050000	15.999410
1348    Ob       1     MMT1      Ob    1348	-1.050000	15.999410
1349    Ob       1     MMT1      Ob    1349	-1.050000	15.999410
1350     H       1     MMT1       H    1350	0.425000	1.007940
1351    Al       1     MMT1      Al    1351	1.575000	26.981540
1352    Si       1     MMT1      Si    1352	2.100000	28.085380
1353    Si       1     MMT1      Si    1353	2.100000	28.085380
1354    Op       1     MMT1      Op    1354	-1.050000	15.999410
1355    Op       1     MMT1      Op    1355	-1.050000	15.999410
1356    Oh       1     MMT1      Oh    1356	-0.950000	15.999410
1357    Ob       1     MMT1      Ob    1357	-1.050000	15.999410
1358    Ob       1     MMT1      Ob    1358	-1.050000	15.999410
1359    Ob       1     MMT1      Ob    1359	-1.050000	15.999410
1360     H       1     MMT1       H    1360	0.425000	1.007940
1361    Al       1     MMT1      Al    1361	1.575000	26.981540
1362    Si       1     MMT1      Si    1362	2.100000	28.085380
1363    Si       1     MMT1      Si    1363	2.100000	28.085380
1364    Op       1     MMT1      Op    1364	-1.050000	15.999410
1365    Op       1     MMT1      Op    1365	-1.050000	15.999410
1366    Oh       1     MMT1      Oh    1366	-0.950000	15.999410
1367    Ob       1     MMT1      Ob    1367	-1.050000	15.999410
1368    Ob       1     MMT1      Ob    1368	-1.050000	15.999410
1369    Ob       1     MMT1      Ob    1369	-1.050000	15.999410
1370     H       1     MMT1       H    1370	0.425000	1.007940
1371    Al       1     MMT1      Al    1371	1.575000	26.981540
1372    Si       1     MMT1      Si    1372	2.100000	28.085380
1373    Si       1     MMT1      Si    1373	2.100000	28.085380
1374    Op       1     MMT1      Op    1374	-1.050000	15.999410
1375    Op       1     MMT1      Op    1375	-1.050000	15.999410
1376  Ohmg       1     MMT1    Ohmg    1376	-1.080833	15.999410
1377    Ob       1     MMT1      Ob    1377	-1.050000	15.999410
1378    Ob       1     MMT1      Ob    1378	-1.050000	15.999410
1379    Ob       1     MMT1      Ob    1379	-1.050000	15.999410
1380     H       1     MMT1       H    1380	0.425000	1.007940
1381    Al       1     MMT1      Al    1381	1.575000	26.981540
1382    Si       1     MMT1      Si    1382	2.100000	28.085380
1383    Si       1     MMT1      Si    1383	2.100000	28.085380
1384    Op       1     MMT1      Op    1384	-1.050000	15.999410
1385    Op       1     MMT1      Op    1385	-1.050000	15.999410
1386  Ohmg       1     MMT1    Ohmg    1386	-1.080833	15.999410
1387    Ob       1     MMT1      Ob    1387	-1.050000	15.999410
1388    Ob       1     MMT1      Ob    1388	-1.050000	15.999410
1389    Ob       1     MMT1      Ob    1389	-1.050000	15.999410
1390     H       1     MMT1       H    1390	0.425000	1.007940
1391    Al       1     MMT1      Al    1391	1.575000	26.981540
1392    Si       1     MMT1      Si    1392	2.100000	28.085380
1393    Si       1     MMT1      Si    1393	2.100000	28.085380
1394   Omg       1     MMT1     Omg    1394	-1.180833	15.999410
1395    Op       1     MMT1      Op    1395	-1.050000	15.999410
1396    Oh       1     MMT1      Oh    1396	-0.950000	15.999410
1397    Ob       1     MMT1      Ob    1397	-1.050000	15.999410
1398    Ob       1     MMT1      Ob    1398	-1.050000	15.999410
1399    Ob       1     MMT1      Ob    1399	-1.050000	15.999410
1400     H       1     MMT1       H    1400	0.425000	1.007940
1401    Al       1     MMT1      Al    1401	1.575000	26.981540
1402    Si       1     MMT1      Si    1402	2.100000	28.085380
1403    Si       1     MMT1      Si    1403	2.100000	28.085380
1404    Op       1     MMT1      Op    1404	-1.050000	15.999410
1405    Op       1     MMT1      Op    1405	-1.050000	15.999410
1406    Oh       1     MMT1      Oh    1406	-0.950000	15.999410
1407    Ob       1     MMT1      Ob    1407	-1.050000	15.999410
1408    Ob       1     MMT1      Ob    1408	-1.050000	15.999410
1409    Ob       1     MMT1      Ob    1409	-1.050000	15.999410
1410     H       1     MMT1       H    1410	0.425000	1.007940
1411   Mgo       1     MMT1     Mgo    1411	1.360000	24.305000
1412    Si       1     MMT1      Si    1412	2.100000	28.085380
1413    Si       1     MMT1      Si    1413	2.100000	28.085380
1414   Omg       1     MMT1     Omg    1414	-1.180833	15.999410
1415   Omg       1     MMT1     Omg    1415	-1.180833	15.999410
1416    Oh       1     MMT1      Oh    1416	-0.950000	15.999410
1417    Ob       1     MMT1      Ob    1417	-1.050000	15.999410
1418    Ob       1     MMT1      Ob    1418	-1.050000	15.999410
1419    Ob       1     MMT1      Ob    1419	-1.050000	15.999410
1420     H       1     MMT1       H    1420	0.425000	1.007940
1421    Al       1     MMT1      Al    1421	1.575000	26.981540
1422    Si       1     MMT1      Si    1422	2.100000	28.085380
1423    Si       1     MMT1      Si    1423	2.100000	28.085380
1424    Op       1     MMT1      Op    1424	-1.050000	15.999410
1425   Omg       1     MMT1     Omg    1425	-1.180833	15.999410
1426    Oh       1     MMT1      Oh    1426	-0.950000	15.999410
1427    Ob       1     MMT1      Ob    1427	-1.050000	15.999410
1428    Ob       1     MMT1      Ob    1428	-1.050000	15.999410
1429    Ob       1     MMT1      Ob    1429	-1.050000	15.999410
1430     H       1     MMT1       H    1430	0.425000	1.007940
1431    Al       1     MMT1      Al    1431	1.575000	26.981540
1432    Si       1     MMT1      Si    1432	2.100000	28.085380
1433    Si       1     MMT1      Si    1433	2.100000	28.085380
1434    Op       1     MMT1      Op    1434	-1.050000	15.999410
1435    Op       1     MMT1      Op    1435	-1.050000	15.999410
1436    Oh       1     MMT1      Oh    1436	-0.950000	15.999410
1437    Ob       1     MMT1      Ob    1437	-1.050000	15.999410
1438    Ob       1     MMT1      Ob    1438	-1.050000	15.999410
1439    Ob       1     MMT1      Ob    1439	-1.050000	15.999410
1440     H       1     MMT1       H    1440	0.425000	1.007940
1441   Mgo       1     MMT1     Mgo    1441	1.360000	24.305000
1442    Si       1     MMT1      Si    1442	2.100000	28.085380
1443    Si       1     MMT1      Si    1443	2.100000	28.085380
1444   Omg       1     MMT1     Omg    1444	-1.180833	15.999410
1445   Omg       1     MMT1     Omg    1445	-1.180833	15.999410
1446  Ohmg       1     MMT1    Ohmg    1446	-1.080833	15.999410
1447    Ob       1     MMT1      Ob    1447	-1.050000	15.999410
1448    Ob       1     MMT1      Ob    1448	-1.050000	15.999410
1449    Ob       1     MMT1      Ob    1449	-1.050000	15.999410
1450     H       1     MMT1       H    1450	0.425000	1.007940
1451   Mgo       1     MMT1     Mgo    1451	1.360000	24.305000
1452    Si       1     MMT1      Si    1452	2.100000	28.085380
1453    Si       1     MMT1      Si    1453	2.100000	28.085380
1454   Omg       1     MMT1     Omg    1454	-1.180833	15.999410
1455   Omg       1     MMT1     Omg    1455	-1.180833	15.999410
1456  Ohmg       1     MMT1    Ohmg    1456	-1.080833	15.999410
1457    Ob       1     MMT1      Ob    1457	-1.050000	15.999410
1458    Ob       1     MMT1      Ob    1458	-1.050000	15.999410
1459    Ob       1     MMT1      Ob    1459	-1.050000	15.999410
1460     H       1     MMT1       H    1460	0.425000	1.007940
1461    Al       1     MMT1      Al    1461	1.575000	26.981540
1462    Si       1     MMT1      Si    1462	2.100000	28.085380
1463    Si       1     MMT1      Si    1463	2.100000	28.085380
1464   Omg       1     MMT1     Omg    1464	-1.180833	15.999410
1465   Omg       1     MMT1     Omg    1465	-1.180833	15.999410
1466  Ohmg       1     MMT1    Ohmg    1466	-1.080833	15.999410
1467    Ob       1     MMT1      Ob    1467	-1.050000	15.999410
1468    Ob       1     MMT1      Ob    1468	-1.050000	15.999410
1469    Ob       1     MMT1      Ob    1469	-1.050000	15.999410
1470     H       1     MMT1       H    1470	0.425000	1.007940
1471    Al       1     MMT1      Al    1471	1.575000	26.981540
1472    Si       1     MMT1      Si    1472	2.100000	28.085380
1473    Si       1     MMT1      Si    1473	2.100000	28.085380
1474   Omg       1     MMT1     Omg    1474	-1.180833	15.999410
1475   Omg       1     MMT1     Omg    1475	-1.180833	15.999410
1476  Ohmg       1     MMT1    Ohmg    1476	-1.080833	15.999410
1477    Ob       1     MMT1      Ob    1477	-1.050000	15.999410
1478    Ob       1     MMT1      Ob    1478	-1.050000	15.999410
1479    Ob       1     MMT1      Ob    1479	-1.050000	15.999410
1480     H       1     MMT1       H    1480	0.425000	1.007940
1481   Mgo       1     MMT1     Mgo    1481	1.360000	24.305000
1482    Si       1     MMT1      Si    1482	2.100000	28.085380
1483    Si       1     MMT1      Si    1483	2.100000	28.085380
1484   Omg       1     MMT1     Omg    1484	-1.180833	15.999410
1485   Omg       1     MMT1     Omg    1485	-1.180833	15.999410
1486  Ohmg       1     MMT1    Ohmg    1486	-1.080833	15.999410
1487    Ob       1     MMT1      Ob    1487	-1.050000	15.999410
1488    Ob       1     MMT1      Ob    1488	-1.050000	15.999410
1489    Ob       1     MMT1      Ob    1489	-1.050000	15.999410
1490     H       1     MMT1       H    1490	0.425000	1.007940
1491   Mgo       1     MMT1     Mgo    1491	1.360000	24.305000
1492    Si       1     MMT1      Si    1492	2.100000	28.085380
1493    Si       1     MMT1      Si    1493	2.100000	28.085380
1494   Omg       1     MMT1     Omg    1494	-1.180833	15.999410
1495   Omg       1     MMT1     Omg    1495	-1.180833	15.999410
1496    Oh       1     MMT1      Oh    1496	-0.950000	15.999410
1497    Ob       1     MMT1      Ob    1497	-1.050000	15.999410
1498    Ob       1     MMT1      Ob    1498	-1.050000	15.999410
1499    Ob       1     MMT1      Ob    1499	-1.050000	15.999410
1500     H       1     MMT1       H    1500	0.425000	1.007940
1501    Al       1     MMT1      Al    1501	1.575000	26.981540
1502    Si       1     MMT1      Si    1502	2.100000	28.085380
1503    Si       1     MMT1      Si    1503	2.100000	28.085380
1504   Omg       1     MMT1     Omg    1504	-1.180833	15.999410
1505   Omg       1     MMT1     Omg    1505	-1.180833	15.999410
1506    Oh       1     MMT1      Oh    1506	-0.950000	15.999410
1507    Ob       1     MMT1      Ob    1507	-1.050000	15.999410
1508    Ob       1     MMT1      Ob    1508	-1.050000	15.999410
1509    Ob       1     MMT1      Ob    1509	-1.050000	15.999410
1510     H       1     MMT1       H    1510	0.425000	1.007940
1511    Al       1     MMT1      Al    1511	1.575000	26.981540
1512    Si       1     MMT1      Si    1512	2.100000	28.085380
1513    Si       1     MMT1      Si    1513	2.100000	28.085380
1514    Op       1     MMT1      Op    1514	-1.050000	15.999410
1515   Omg       1     MMT1     Omg    1515	-1.180833	15.999410
1516  Ohmg       1     MMT1    Ohmg    1516	-1.080833	15.999410
1517    Ob       1     MMT1      Ob    1517	-1.050000	15.999410
1518    Ob       1     MMT1      Ob    1518	-1.050000	15.999410
1519    Ob       1     MMT1      Ob    1519	-1.050000	15.999410
1520     H       1     MMT1       H    1520	0.425000	1.007940
1521   Mgo       1     MMT1     Mgo    1521	1.360000	24.305000
1522    Si       1     MMT1      Si    1522	2.100000	28.085380
1523    Si       1     MMT1      Si    1523	2.100000	28.085380
1524   Omg       1     MMT1     Omg    1524	-1.180833	15.999410
1525   Omg       1     MMT1     Omg    1525	-1.180833	15.999410
1526  Ohmg       1     MMT1    Ohmg    1526	-1.080833	15.999410
1527    Ob       1     MMT1      Ob    1527	-1.050000	15.999410
1528    Ob       1     MMT1      Ob    1528	-1.050000	15.999410
1529    Ob       1     MMT1      Ob    1529	-1.050000	15.999410
1530     H       1     MMT1       H    1530	0.425000	1.007940
1531    Al       1     MMT1      Al    1531	1.575000	26.981540
1532    Si       1     MMT1      Si    1532	2.100000	28.085380
1533    Si       1     MMT1      Si    1533	2.100000	28.085380
1534    Op       1     MMT1      Op    1534	-1.050000	15.999410
1535    Op       1     MMT1      Op    1535	-1.050000	15.999410
1536    Oh       1     MMT1      Oh    1536	-0.950000	15.999410
1537    Ob       1     MMT1      Ob    1537	-1.050000	15.999410
1538    Ob       1     MMT1      Ob    1538	-1.050000	15.999410
1539    Ob       1     MMT1      Ob    1539	-1.050000	15.999410
1540     H       1     MMT1       H    1540	0.425000	1.007940
1541    Al       1     MMT1      Al    1541	1.575000	26.981540
1542    Si       1     MMT1      Si    1542	2.100000	28.085380
1543    Si       1     MMT1      Si    1543	2.100000	28.085380
1544   Omg       1     MMT1     Omg    1544	-1.180833	15.999410
1545    Op       1     MMT1      Op    1545	-1.050000	15.999410
1546    Oh       1     MMT1      Oh    1546	-0.950000	15.999410
1547    Ob       1     MMT1      Ob    1547	-1.050000	15.999410
1548    Ob       1     MMT1      Ob    1548	-1.050000	15.999410
1549    Ob       1     MMT1      Ob    1549	-1.050000	15.999410
1550     H       1     MMT1       H    1550	0.425000	1.007940
1551    Al       1     MMT1      Al    1551	1.575000	26.981540
1552    Si       1     MMT1      Si    1552	2.100000	28.085380
1553    Si       1     MMT1      Si    1553	2.100000	28.085380
1554    Op       1     MMT1      Op    1554	-1.050000	15.999410
1555   Omg       1     MMT1     Omg    1555	-1.180833	15.999410
1556  Ohmg       1     MMT1    Ohmg    1556	-1.080833	15.999410
1557    Ob       1     MMT1      Ob    1557	-1.050000	15.999410
1558    Ob       1     MMT1      Ob    1558	-1.050000	15.999410
1559    Ob       1     MMT1      Ob    1559	-1.050000	15.999410
1560     H       1     MMT1       H    1560	0.425000	1.007940
1561    Al       1     MMT1      Al    1561	1.575000	26.981540
1562    Si       1     MMT1      Si    1562	2.100000	28.085380
1563    Si       1     MMT1      Si    1563	2.100000	28.085380
1564    Op       1     MMT1      Op    1564	-1.050000	15.999410
1565    Op       1     MMT1      Op    1565	-1.050000	15.999410
1566    Oh       1     MMT1      Oh    1566	-0.950000	15.999410
1567    Ob       1     MMT1      Ob    1567	-1.050000	15.999410
1568    Ob       1     MMT1      Ob    1568	-1.050000	15.999410
1569    Ob       1     MMT1      Ob    1569	-1.050000	15.999410
1570     H       1     MMT1       H    1570	0.425000	1.007940
1571    Al       1     MMT1      Al    1571	1.575000	26.981540
1572    Si       1     MMT1      Si    1572	2.100000	28.085380
1573    Si       1     MMT1      Si    1573	2.100000	28.085380
1574    Op       1     MMT1      Op    1574	-1.050000	15.999410
1575    Op       1     MMT1      Op    1575	-1.050000	15.999410
1576    Oh       1     MMT1      Oh    1576	-0.950000	15.999410
1577    Ob       1     MMT1      Ob    1577	-1.050000	15.999410
1578    Ob       1     MMT1      Ob    1578	-1.050000	15.999410
1579    Ob       1     MMT1      Ob    1579	-1.050000	15.999410
1580     H       1     MMT1       H    1580	0.425000	1.007940
1581    Al       1     MMT1      Al    1581	1.575000	26.981540
1582    Si       1     MMT1      Si    1582	2.100000	28.085380
1583    Si       1     MMT1      Si    1583	2.100000	28.085380
1584    Op       1     MMT1      Op    1584	-1.050000	15.999410
1585    Op       1     MMT1      Op    1585	-1.050000	15.999410
1586    Oh       1     MMT1      Oh    1586	-0.950000	15.999410
1587    Ob       1     MMT1      Ob    1587	-1.050000	15.999410
1588    Ob       1     MMT1      Ob    1588	-1.050000	15.999410
1589    Ob       1     MMT1      Ob    1589	-1.050000	15.999410
1590     H       1     MMT1       H    1590	0.425000	1.007940
1591    Al       1     MMT1      Al    1591	1.575000	26.981540
1592    Si       1     MMT1      Si    1592	2.100000	28.085380
1593    Si       1     MMT1      Si    1593	2.100000	28.085380
1594    Op       1     MMT1      Op    1594	-1.050000	15.999410
1595    Op       1     MMT1      Op    1595	-1.050000	15.999410
1596    Oh       1     MMT1      Oh    1596	-0.950000	15.999410
1597    Ob       1     MMT1      Ob    1597	-1.050000	15.999410
1598    Ob       1     MMT1      Ob    1598	-1.050000	15.999410
1599    Ob       1     MMT1      Ob    1599	-1.050000	15.999410
1600     H       1     MMT1       H    1600	0.425000	1.007940
1601    Al       1     MMT1      Al    1601	1.575000	26.981540
1602    Si       1     MMT1      Si    1602	2.100000	28.085380
1603    Si       1     MMT1      Si    1603	2.100000	28.085380
1604   Omg       1     MMT1     Omg    1604	-1.180833	15.999410
1605   Omg       1     MMT1     Omg    1605	-1.180833	15.999410
1606    Oh       1     MMT1      Oh    1606	-0.950000	15.999410
1607    Ob       1     MMT1      Ob    1607	-1.050000	15.999410
1608    Ob       1     MMT1      Ob    1608	-1.050000	15.999410
1609    Ob       1     MMT1      Ob    1609	-1.050000	15.999410
1610     H       1     MMT1       H    1610	0.425000	1.007940
1611    Al       1     MMT1      Al    1611	1.575000	26.981540
1612    Si       1     MMT1      Si    1612	2.100000	28.085380
1613    Si       1     MMT1      Si    1613	2.100000	28.085380
1614    Op       1     MMT1      Op    1614	-1.050000	15.999410
1615   Omg       1     MMT1     Omg    1615	-1.180833	15.999410
1616  Ohmg       1     MMT1    Ohmg    1616	-1.080833	15.999410
1617    Ob       1     MMT1      Ob    1617	-1.050000	15.999410
1618    Ob       1     MMT1      Ob    1618	-1.050000	15.999410
1619    Ob       1     MMT1      Ob    1619	-1.050000	15.999410
1620     H       1     MMT1       H    1620	0.425000	1.007940
1621   Mgo       1     MMT1     Mgo    1621	1.360000	24.305000
1622    Si       1     MMT1      Si    1622	2.100000	28.085380
1623    Si       1     MMT1      Si    1623	2.100000	28.085380
1624   Omg       1     MMT1     Omg    1624	-1.180833	15.999410
1625   Omg       1     MMT1     Omg    1625	-1.180833	15.999410
1626  Ohmg       1     MMT1    Ohmg    1626	-1.080833	15.999410
1627    Ob       1     MMT1      Ob    1627	-1.050000	15.999410
1628    Ob       1     MMT1      Ob    1628	-1.050000	15.999410
1629    Ob       1     MMT1      Ob    1629	-1.050000	15.999410
1630     H       1     MMT1       H    1630	0.425000	1.007940
1631    Al       1     MMT1      Al    1631	1.575000	26.981540
1632    Si       1     MMT1      Si    1632	2.100000	28.085380
1633    Si       1     MMT1      Si    1633	2.100000	28.085380
1634   Omg       1     MMT1     Omg    1634	-1.180833	15.999410
1635   Omg       1     MMT1     Omg    1635	-1.180833	15.999410
1636    Oh       1     MMT1      Oh    1636	-0.950000	15.999410
1637    Ob       1     MMT1      Ob    1637	-1.050000	15.999410
1638    Ob       1     MMT1      Ob    1638	-1.050000	15.999410
1639    Ob       1     MMT1      Ob    1639	-1.050000	15.999410
1640     H       1     MMT1       H    1640	0.425000	1.007940
1641    Al       1     MMT1      Al    1641	1.575000	26.981540
1642    Si       1     MMT1      Si    1642	2.100000	28.085380
1643    Si       1     MMT1      Si    1643	2.100000	28.085380
1644   Omg       1     MMT1     Omg    1644	-1.180833	15.999410
1645    Op       1     MMT1      Op    1645	-1.050000	15.999410
1646  Ohmg       1     MMT1    Ohmg    1646	-1.080833	15.999410
1647    Ob       1     MMT1      Ob    1647	-1.050000	15.999410
1648    Ob       1     MMT1      Ob    1648	-1.050000	15.999410
1649    Ob       1     MMT1      Ob    1649	-1.050000	15.999410
1650     H       1     MMT1       H    1650	0.425000	1.007940
1651    Al       1     MMT1      Al    1651	1.575000	26.981540
1652    Si       1     MMT1      Si    1652	2.100000	28.085380
1653    Si       1     MMT1      Si    1653	2.100000	28.085380
1654   Omg       1     MMT1     Omg    1654	-1.180833	15.999410
1655   Omg       1     MMT1     Omg    1655	-1.180833	15.999410
1656  Ohmg       1     MMT1    Ohmg    1656	-1.080833	15.999410
1657    Ob       1     MMT1      Ob    1657	-1.050000	15.999410
1658    Ob       1     MMT1      Ob    1658	-1.050000	15.999410
1659    Ob       1     MMT1      Ob    1659	-1.050000	15.999410
1660     H       1     MMT1       H    1660	0.425000	1.007940
1661   Mgo       1     MMT1     Mgo    1661	1.360000	24.305000
1662    Si       1     MMT1      Si    1662	2.100000	28.085380
1663    Si       1     MMT1      Si    1663	2.100000	28.085380
1664   Omg       1     MMT1     Omg    1664	-1.180833	15.999410
1665   Omg       1     MMT1     Omg    1665	-1.180833	15.999410
1666  Ohmg       1     MMT1    Ohmg    1666	-1.080833	15.999410
1667    Ob       1     MMT1      Ob    1667	-1.050000	15.999410
1668    Ob       1     MMT1      Ob    1668	-1.050000	15.999410
1669    Ob       1     MMT1      Ob    1669	-1.050000	15.999410
1670     H       1     MMT1       H    1670	0.425000	1.007940
1671   Mgo       1     MMT1     Mgo    1671	1.360000	24.305000
1672    Si       1     MMT1      Si    1672	2.100000	28.085380
1673    Si       1     MMT1      Si    1673	2.100000	28.085380
1674    Op       1     MMT1      Op    1674	-1.050000	15.999410
1675    Op       1     MMT1      Op    1675	-1.050000	15.999410
1676  Ohmg       1     MMT1    Ohmg    1676	-1.080833	15.999410
1677    Ob       1     MMT1      Ob    1677	-1.050000	15.999410
1678    Ob       1     MMT1      Ob    1678	-1.050000	15.999410
1679    Ob       1     MMT1      Ob    1679	-1.050000	15.999410
1680     H       1     MMT1       H    1680	0.425000	1.007940
1681    Al       1     MMT1      Al    1681	1.575000	26.981540
1682    Si       1     MMT1      Si    1682	2.100000	28.085380
1683    Si       1     MMT1      Si    1683	2.100000	28.085380
1684   Omg       1     MMT1     Omg    1684	-1.180833	15.999410
1685    Op       1     MMT1      Op    1685	-1.050000	15.999410
1686    Oh       1     MMT1      Oh    1686	-0.950000	15.999410
1687    Ob       1     MMT1      Ob    1687	-1.050000	15.999410
1688    Ob       1     MMT1      Ob    1688	-1.050000	15.999410
1689    Ob       1     MMT1      Ob    1689	-1.050000	15.999410
1690     H       1     MMT1       H    1690	0.425000	1.007940
1691    Al       1     MMT1      Al    1691	1.575000	26.981540
1692    Si       1     MMT1      Si    1692	2.100000	28.085380
1693    Si       1     MMT1      Si    1693	2.100000	28.085380
1694    Op       1     MMT1      Op    1694	-1.050000	15.999410
1695    Op       1     MMT1      Op    1695	-1.050000	15.999410
1696    Oh       1     MMT1      Oh    1696	-0.950000	15.999410
1697    Ob       1     MMT1      Ob    1697	-1.050000	15.999410
1698    Ob       1     MMT1      Ob    1698	-1.050000	15.999410
1699    Ob       1     MMT1      Ob    1699	-1.050000	15.999410
1700     H       1     MMT1       H    1700	0.425000	1.007940
1701    Al       1     MMT1      Al    1701	1.575000	26.981540
1702    Si       1     MMT1      Si    1702	2.100000	28.085380
1703    Si       1     MMT1      Si    1703	2.100000	28.085380
1704   Omg       1     MMT1     Omg    1704	-1.180833	15.999410
1705    Op       1     MMT1      Op    1705	-1.050000	15.999410
1706    Oh       1     MMT1      Oh    1706	-0.950000	15.999410
1707    Ob       1     MMT1      Ob    1707	-1.050000	15.999410
1708    Ob       1     MMT1      Ob    1708	-1.050000	15.999410
1709    Ob       1     MMT1      Ob    1709	-1.050000	15.999410
1710     H       1     MMT1       H    1710	0.425000	1.007940
1711    Al       1     MMT1      Al    1711	1.575000	26.981540
1712    Si       1     MMT1      Si    1712	2.100000	28.085380
1713    Si       1     MMT1      Si    1713	2.100000	28.085380
1714    Op       1     MMT1      Op    1714	-1.050000	15.999410
1715    Op       1     MMT1      Op    1715	-1.050000	15.999410
1716    Oh       1     MMT1      Oh    1716	-0.950000	15.999410
1717    Ob       1     MMT1      Ob    1717	-1.050000	15.999410
1718    Ob       1     MMT1      Ob    1718	-1.050000	15.999410
1719    Ob       1     MMT1      Ob    1719	-1.050000	15.999410
1720     H       1     MMT1       H    1720	0.425000	1.007940
1721    Al       1     MMT1      Al    1721	1.575000	26.981540
1722    Si       1     MMT1      Si    1722	2.100000	28.085380
1723    Si       1     MMT1      Si    1723	2.100000	28.085380
1724    Op       1     MMT1      Op    1724	-1.050000	15.999410
1725    Op       1     MMT1      Op    1725	-1.050000	15.999410
1726    Oh       1     MMT1      Oh    1726	-0.950000	15.999410
1727    Ob       1     MMT1      Ob    1727	-1.050000	15.999410
1728    Ob       1     MMT1      Ob    1728	-1.050000	15.999410
1729    Ob       1     MMT1      Ob    1729	-1.050000	15.999410
1730     H       1     MMT1       H    1730	0.425000	1.007940
1731    Al       1     MMT1      Al    1731	1.575000	26.981540
1732    Si       1     MMT1      Si    1732	2.100000	28.085380
1733    Si       1     MMT1      Si    1733	2.100000	28.085380
1734    Op       1     MMT1      Op    1734	-1.050000	15.999410
1735    Op       1     MMT1      Op    1735	-1.050000	15.999410
1736    Oh       1     MMT1      Oh    1736	-0.950000	15.999410
1737    Ob       1     MMT1      Ob    1737	-1.050000	15.999410
1738    Ob       1     MMT1      Ob    1738	-1.050000	15.999410
1739    Ob       1     MMT1      Ob    1739	-1.050000	15.999410
1740     H       1     MMT1       H    1740	0.425000	1.007940
1741    Al       1     MMT1      Al    1741	1.575000	26.981540
1742    Si       1     MMT1      Si    1742	2.100000	28.085380
1743    Si       1     MMT1      Si    1743	2.100000	28.085380
1744    Op       1     MMT1      Op    1744	-1.050000	15.999410
1745    Op       1     MMT1      Op    1745	-1.050000	15.999410
1746    Oh       1     MMT1      Oh    1746	-0.950000	15.999410
1747    Ob       1     MMT1      Ob    1747	-1.050000	15.999410
1748    Ob       1     MMT1      Ob    1748	-1.050000	15.999410
1749    Ob       1     MMT1      Ob    1749	-1.050000	15.999410
1750     H       1     MMT1       H    1750	0.425000	1.007940
1751    Al       1     MMT1      Al    1751	1.575000	26.981540
1752    Si       1     MMT1      Si    1752	2.100000	28.085380
1753    Si       1     MMT1      Si    1753	2.100000	28.085380
1754    Op       1     MMT1      Op    1754	-1.050000	15.999410
1755    Op       1     MMT1      Op    1755	-1.050000	15.999410
1756    Oh       1     MMT1      Oh    1756	-0.950000	15.999410
1757    Ob       1     MMT1      Ob    1757	-1.050000	15.999410
1758    Ob       1     MMT1      Ob    1758	-1.050000	15.999410
1759    Ob       1     MMT1      Ob    1759	-1.050000	15.999410
1760     H       1     MMT1       H    1760	0.425000	1.007940
1761    Al       1     MMT1      Al    1761	1.575000	26.981540
1762    Si       1     MMT1      Si    1762	2.100000	28.085380
1763    Si       1     MMT1      Si    1763	2.100000	28.085380
1764    Op       1     MMT1      Op    1764	-1.050000	15.999410
1765    Op       1     MMT1      Op    1765	-1.050000	15.999410
1766    Oh       1     MMT1      Oh    1766	-0.950000	15.999410
1767    Ob       1     MMT1      Ob    1767	-1.050000	15.999410
1768    Ob       1     MMT1      Ob    1768	-1.050000	15.999410
1769    Ob       1     MMT1      Ob    1769	-1.050000	15.999410
1770     H       1     MMT1       H    1770	0.425000	1.007940
1771    Al       1     MMT1      Al    1771	1.575000	26.981540
1772    Si       1     MMT1      Si    1772	2.100000	28.085380
1773    Si       1     MMT1      Si    1773	2.100000	28.085380
1774    Op       1     MMT1      Op    1774	-1.050000	15.999410
1775   Omg       1     MMT1     Omg    1775	-1.180833	15.999410
1776  Ohmg       1     MMT1    Ohmg    1776	-1.080833	15.999410
1777    Ob       1     MMT1      Ob    1777	-1.050000	15.999410
1778    Ob       1     MMT1      Ob    1778	-1.050000	15.999410
1779    Ob       1     MMT1      Ob    1779	-1.050000	15.999410
1780     H       1     MMT1       H    1780	0.425000	1.007940
1781   Mgo       1     MMT1     Mgo    1781	1.360000	24.305000
1782    Si       1     MMT1      Si    1782	2.100000	28.085380
1783    Si       1     MMT1      Si    1783	2.100000	28.085380
1784    Op       1     MMT1      Op    1784	-1.050000	15.999410
1785   Omg       1     MMT1     Omg    1785	-1.180833	15.999410
1786  Ohmg       1     MMT1    Ohmg    1786	-1.080833	15.999410
1787    Ob       1     MMT1      Ob    1787	-1.050000	15.999410
1788    Ob       1     MMT1      Ob    1788	-1.050000	15.999410
1789    Ob       1     MMT1      Ob    1789	-1.050000	15.999410
1790     H       1     MMT1       H    1790	0.425000	1.007940
1791    Al       1     MMT1      Al    1791	1.575000	26.981540
1792    Si       1     MMT1      Si    1792	2.100000	28.085380
1793    Si       1     MMT1      Si    1793	2.100000	28.085380
1794    Op       1     MMT1      Op    1794	-1.050000	15.999410
1795    Op       1     MMT1      Op    1795	-1.050000	15.999410
1796    Oh       1     MMT1      Oh    1796	-0.950000	15.999410
1797    Ob       1     MMT1      Ob    1797	-1.050000	15.999410
1798    Ob       1     MMT1      Ob    1798	-1.050000	15.999410
1799    Ob       1     MMT1      Ob    1799	-1.050000	15.999410
1800     H       1     MMT1       H    1800	0.425000	1.007940
1801    Al       1     MMT1      Al    1801	1.575000	26.981540
1802    Si       1     MMT1      Si    1802	2.100000	28.085380
1803    Si       1     MMT1      Si    1803	2.100000	28.085380
1804    Op       1     MMT1      Op    1804	-1.050000	15.999410
1805   Omg       1     MMT1     Omg    1805	-1.180833	15.999410
1806    Oh       1     MMT1      Oh    1806	-0.950000	15.999410
1807    Ob       1     MMT1      Ob    1807	-1.050000	15.999410
1808    Ob       1     MMT1      Ob    1808	-1.050000	15.999410
1809    Ob       1     MMT1      Ob    1809	-1.050000	15.999410
1810     H       1     MMT1       H    1810	0.425000	1.007940
1811    Al       1     MMT1      Al    1811	1.575000	26.981540
1812    Si       1     MMT1      Si    1812	2.100000	28.085380
1813    Si       1     MMT1      Si    1813	2.100000	28.085380
1814    Op       1     MMT1      Op    1814	-1.050000	15.999410
1815    Op       1     MMT1      Op    1815	-1.050000	15.999410
1816    Oh       1     MMT1      Oh    1816	-0.950000	15.999410
1817    Ob       1     MMT1      Ob    1817	-1.050000	15.999410
1818    Ob       1     MMT1      Ob    1818	-1.050000	15.999410
1819    Ob       1     MMT1      Ob    1819	-1.050000	15.999410
1820     H       1     MMT1       H    1820	0.425000	1.007940
1821    Al       1     MMT1      Al    1821	1.575000	26.981540
1822    Si       1     MMT1      Si    1822	2.100000	28.085380
1823    Si       1     MMT1      Si    1823	2.100000	28.085380
1824    Op       1     MMT1      Op    1824	-1.050000	15.999410
1825    Op       1     MMT1      Op    1825	-1.050000	15.999410
1826    Oh       1     MMT1      Oh    1826	-0.950000	15.999410
1827    Ob       1     MMT1      Ob    1827	-1.050000	15.999410
1828    Ob       1     MMT1      Ob    1828	-1.050000	15.999410
1829    Ob       1     MMT1      Ob    1829	-1.050000	15.999410
1830     H       1     MMT1       H    1830	0.425000	1.007940
1831    Al       1     MMT1      Al    1831	1.575000	26.981540
1832    Si       1     MMT1      Si    1832	2.100000	28.085380
1833    Si       1     MMT1      Si    1833	2.100000	28.085380
1834   Omg       1     MMT1     Omg    1834	-1.180833	15.999410
1835   Omg       1     MMT1     Omg    1835	-1.180833	15.999410
1836    Oh       1     MMT1      Oh    1836	-0.950000	15.999410
1837    Ob       1     MMT1      Ob    1837	-1.050000	15.999410
1838    Ob       1     MMT1      Ob    1838	-1.050000	15.999410
1839    Ob       1     MMT1      Ob    1839	-1.050000	15.999410
1840     H       1     MMT1       H    1840	0.425000	1.007940
1841    Al       1     MMT1      Al    1841	1.575000	26.981540
1842    Si       1     MMT1      Si    1842	2.100000	28.085380
1843    Si       1     MMT1      Si    1843	2.100000	28.085380
1844    Op       1     MMT1      Op    1844	-1.050000	15.999410
1845    Op       1     MMT1      Op    1845	-1.050000	15.999410
1846  Ohmg       1     MMT1    Ohmg    1846	-1.080833	15.999410
1847    Ob       1     MMT1      Ob    1847	-1.050000	15.999410
1848    Ob       1     MMT1      Ob    1848	-1.050000	15.999410
1849    Ob       1     MMT1      Ob    1849	-1.050000	15.999410
1850     H       1     MMT1       H    1850	0.425000	1.007940
1851    Al       1     MMT1      Al    1851	1.575000	26.981540
1852    Si       1     MMT1      Si    1852	2.100000	28.085380
1853    Si       1     MMT1      Si    1853	2.100000	28.085380
1854   Omg       1     MMT1     Omg    1854	-1.180833	15.999410
1855    Op       1     MMT1      Op    1855	-1.050000	15.999410
1856    Oh       1     MMT1      Oh    1856	-0.950000	15.999410
1857    Ob       1     MMT1      Ob    1857	-1.050000	15.999410
1858    Ob       1     MMT1      Ob    1858	-1.050000	15.999410
1859    Ob       1     MMT1      Ob    1859	-1.050000	15.999410
1860     H       1     MMT1       H    1860	0.425000	1.007940
1861    Al       1     MMT1      Al    1861	1.575000	26.981540
1862    Si       1     MMT1      Si    1862	2.100000	28.085380
1863    Si       1     MMT1      Si    1863	2.100000	28.085380
1864    Op       1     MMT1      Op    1864	-1.050000	15.999410
1865    Op       1     MMT1      Op    1865	-1.050000	15.999410
1866    Oh       1     MMT1      Oh    1866	-0.950000	15.999410
1867    Ob       1     MMT1      Ob    1867	-1.050000	15.999410
1868    Ob       1     MMT1      Ob    1868	-1.050000	15.999410
1869    Ob       1     MMT1      Ob    1869	-1.050000	15.999410
1870     H       1     MMT1       H    1870	0.425000	1.007940
1871   Mgo       1     MMT1     Mgo    1871	1.360000	24.305000
1872    Si       1     MMT1      Si    1872	2.100000	28.085380
1873    Si       1     MMT1      Si    1873	2.100000	28.085380
1874    Op       1     MMT1      Op    1874	-1.050000	15.999410
1875    Op       1     MMT1      Op    1875	-1.050000	15.999410
1876  Ohmg       1     MMT1    Ohmg    1876	-1.080833	15.999410
1877    Ob       1     MMT1      Ob    1877	-1.050000	15.999410
1878    Ob       1     MMT1      Ob    1878	-1.050000	15.999410
1879    Ob       1     MMT1      Ob    1879	-1.050000	15.999410
1880     H       1     MMT1       H    1880	0.425000	1.007940
1881   Mgo       1     MMT1     Mgo    1881	1.360000	24.305000
1882    Si       1     MMT1      Si    1882	2.100000	28.085380
1883    Si       1     MMT1      Si    1883	2.100000	28.085380
1884   Omg       1     MMT1     Omg    1884	-1.180833	15.999410
1885   Omg       1     MMT1     Omg    1885	-1.180833	15.999410
1886  Ohmg       1     MMT1    Ohmg    1886	-1.080833	15.999410
1887    Ob       1     MMT1      Ob    1887	-1.050000	15.999410
1888    Ob       1     MMT1      Ob    1888	-1.050000	15.999410
1889    Ob       1     MMT1      Ob    1889	-1.050000	15.999410
1890     H       1     MMT1       H    1890	0.425000	1.007940
1891    Al       1     MMT1      Al    1891	1.575000	26.981540
1892    Si       1     MMT1      Si    1892	2.100000	28.085380
1893    Si       1     MMT1      Si    1893	2.100000	28.085380
1894    Op       1     MMT1      Op    1894	-1.050000	15.999410
1895    Op       1     MMT1      Op    1895	-1.050000	15.999410
1896  Ohmg       1     MMT1    Ohmg    1896	-1.080833	15.999410
1897    Ob       1     MMT1      Ob    1897	-1.050000	15.999410
1898    Ob       1     MMT1      Ob    1898	-1.050000	15.999410
1899    Ob       1     MMT1      Ob    1899	-1.050000	15.999410
1900     H       1     MMT1       H    1900	0.425000	1.007940
1901    Al       1     MMT1      Al    1901	1.575000	26.981540
1902    Si       1     MMT1      Si    1902	2.100000	28.085380
1903    Si       1     MMT1      Si    1903	2.100000	28.085380
1904   Omg       1     MMT1     Omg    1904	-1.180833	15.999410
1905    Op       1     MMT1      Op    1905	-1.050000	15.999410
1906  Ohmg       1     MMT1    Ohmg    1906	-1.080833	15.999410
1907    Ob       1     MMT1      Ob    1907	-1.050000	15.999410
1908    Ob       1     MMT1      Ob    1908	-1.050000	15.999410
1909    Ob       1     MMT1      Ob    1909	-1.050000	15.999410
1910     H       1     MMT1       H    1910	0.425000	1.007940
1911    Al       1     MMT1      Al    1911	1.575000	26.981540
1912    Si       1     MMT1      Si    1912	2.100000	28.085380
1913    Si       1     MMT1      Si    1913	2.100000	28.085380
1914   Omg       1     MMT1     Omg    1914	-1.180833	15.999410
1915   Omg       1     MMT1     Omg    1915	-1.180833	15.999410
1916  Ohmg       1     MMT1    Ohmg    1916	-1.080833	15.999410
1917    Ob       1     MMT1      Ob    1917	-1.050000	15.999410
1918    Ob       1     MMT1      Ob    1918	-1.050000	15.999410
1919    Ob       1     MMT1      Ob    1919	-1.050000	15.999410
1920     H       1     MMT1       H    1920	0.425000	1.007940
1921    Al       1     MMT1      Al    1921	1.575000	26.981540
1922    Si       1     MMT1      Si    1922	2.100000	28.085380
1923    Si       1     MMT1      Si    1923	2.100000	28.085380
1924    Op       1     MMT1      Op    1924	-1.050000	15.999410
1925    Op       1     MMT1      Op    1925	-1.050000	15.999410
1926  Ohmg       1     MMT1    Ohmg    1926	-1.080833	15.999410
1927    Ob       1     MMT1      Ob    1927	-1.050000	15.999410
1928    Ob       1     MMT1      Ob    1928	-1.050000	15.999410
1929    Ob       1     MMT1      Ob    1929	-1.050000	15.999410
1930     H       1     MMT1       H    1930	0.425000	1.007940
1931    Al       1     MMT1      Al    1931	1.575000	26.981540
1932    Si       1     MMT1      Si    1932	2.100000	28.085380
1933    Si       1     MMT1      Si    1933	2.100000	28.085380
1934   Omg       1     MMT1     Omg    1934	-1.180833	15.999410
1935    Op       1     MMT1      Op    1935	-1.050000	15.999410
1936  Ohmg       1     MMT1    Ohmg    1936	-1.080833	15.999410
1937    Ob       1     MMT1      Ob    1937	-1.050000	15.999410
1938    Ob       1     MMT1      Ob    1938	-1.050000	15.999410
1939    Ob       1     MMT1      Ob    1939	-1.050000	15.999410
1940     H       1     MMT1       H    1940	0.425000	1.007940
1941    Al       1     MMT1      Al    1941	1.575000	26.981540
1942    Si       1     MMT1      Si    1942	2.100000	28.085380
1943    Si       1     MMT1      Si    1943	2.100000	28.085380
1944    Op       1     MMT1      Op    1944	-1.050000	15.999410
1945    Op       1     MMT1      Op    1945	-1.050000	15.999410
1946  Ohmg       1     MMT1    Ohmg    1946	-1.080833	15.999410
1947    Ob       1     MMT1      Ob    1947	-1.050000	15.999410
1948    Ob       1     MMT1      Ob    1948	-1.050000	15.999410
1949    Ob       1     MMT1      Ob    1949	-1.050000	15.999410
1950     H       1     MMT1       H    1950	0.425000	1.007940
1951   Mgo       1     MMT1     Mgo    1951	1.360000	24.305000
1952    Si       1     MMT1      Si    1952	2.100000	28.085380
1953    Si       1     MMT1      Si    1953	2.100000	28.085380
1954   Omg       1     MMT1     Omg    1954	-1.180833	15.999410
1955    Op       1     MMT1      Op    1955	-1.050000	15.999410
1956  Ohmg       1     MMT1    Ohmg    1956	-1.080833	15.999410
1957    Ob       1     MMT1      Ob    1957	-1.050000	15.999410
1958    Ob       1     MMT1      Ob    1958	-1.050000	15.999410
1959    Ob       1     MMT1      Ob    1959	-1.050000	15.999410
1960     H       1     MMT1       H    1960	0.425000	1.007940
1961   Mgo       1     MMT1     Mgo    1961	1.360000	24.305000
1962    Si       1     MMT1      Si    1962	2.100000	28.085380
1963    Si       1     MMT1      Si    1963	2.100000	28.085380
1964   Omg       1     MMT1     Omg    1964	-1.180833	15.999410
1965   Omg       1     MMT1     Omg    1965	-1.180833	15.999410
1966  Ohmg       1     MMT1    Ohmg    1966	-1.080833	15.999410
1967    Ob       1     MMT1      Ob    1967	-1.050000	15.999410
1968    Ob       1     MMT1      Ob    1968	-1.050000	15.999410
1969    Ob       1     MMT1      Ob    1969	-1.050000	15.999410
1970     H       1     MMT1       H    1970	0.425000	1.007940
1971   Mgo       1     MMT1     Mgo    1971	1.360000	24.305000
1972    Si       1     MMT1      Si    1972	2.100000	28.085380
1973    Si       1     MMT1      Si    1973	2.100000	28.085380
1974   Omg       1     MMT1     Omg    1974	-1.180833	15.999410
1975   Omg       1     MMT1     Omg    1975	-1.180833	15.999410
1976  Ohmg       1     MMT1    Ohmg    1976	-1.080833	15.999410
1977    Ob       1     MMT1      Ob    1977	-1.050000	15.999410
1978    Ob       1     MMT1      Ob    1978	-1.050000	15.999410
1979    Ob       1     MMT1      Ob    1979	-1.050000	15.999410
1980     H       1     MMT1       H    1980	0.425000	1.007940
1981    Al       1     MMT1      Al    1981	1.575000	26.981540
1982    Si       1     MMT1      Si    1982	2.100000	28.085380
1983    Si       1     MMT1      Si    1983	2.100000	28.085380
1984   Omg       1     MMT1     Omg    1984	-1.180833	15.999410
1985   Omg       1     MMT1     Omg    1985	-1.180833	15.999410
1986  Ohmg       1     MMT1    Ohmg    1986	-1.080833	15.999410
1987    Ob       1     MMT1      Ob    1987	-1.050000	15.999410
1988    Ob       1     MMT1      Ob    1988	-1.050000	15.999410
1989    Ob       1     MMT1      Ob    1989	-1.050000	15.999410
1990     H       1     MMT1       H    1990	0.425000	1.007940
1991    Al       1     MMT1      Al    1991	1.575000	26.981540
1992    Si       1     MMT1      Si    1992	2.100000	28.085380
1993    Si       1     MMT1      Si    1993	2.100000	28.085380
1994   Omg       1     MMT1     Omg    1994	-1.180833	15.999410
1995   Omg       1     MMT1     Omg    1995	-1.180833	15.999410
1996  Ohmg       1     MMT1    Ohmg    1996	-1.080833	15.999410
1997    Ob       1     MMT1      Ob    1997	-1.050000	15.999410
1998    Ob       1     MMT1      Ob    1998	-1.050000	15.999410
1999    Ob       1     MMT1      Ob    1999	-1.050000	15.999410
2000     H       1     MMT1       H    2000	0.425000	1.007940
2001    Al       1     MMT1      Al    2001	1.575000	26.981540
2002    Si       1     MMT1      Si    2002	2.100000	28.085380
2003    Si       1     MMT1      Si    2003	2.100000	28.085380
2004    Op       1     MMT1      Op    2004	-1.050000	15.999410
2005    Op       1     MMT1      Op    2005	-1.050000	15.999410
2006    Oh       1     MMT1      Oh    2006	-0.950000	15.999410
2007    Ob       1     MMT1      Ob    2007	-1.050000	15.999410
2008    Ob       1     MMT1      Ob    2008	-1.050000	15.999410
2009    Ob       1     MMT1      Ob    2009	-1.050000	15.999410
2010     H       1     MMT1       H    2010	0.425000	1.007940
2011   Mgo       1     MMT1     Mgo    2011	1.360000	24.305000
2012    Si       1     MMT1      Si    2012	2.100000	28.085380
2013    Si       1     MMT1      Si    2013	2.100000	28.085380
2014   Omg       1     MMT1     Omg    2014	-1.180833	15.999410
2015   Omg       1     MMT1     Omg    2015	-1.180833	15.999410
2016    Oh       1     MMT1      Oh    2016	-0.950000	15.999410
2017    Ob       1     MMT1      Ob    2017	-1.050000	15.999410
2018    Ob       1     MMT1      Ob    2018	-1.050000	15.999410
2019    Ob       1     MMT1      Ob    2019	-1.050000	15.999410
2020     H       1     MMT1       H    2020	0.425000	1.007940
2021    Al       1     MMT1      Al    2021	1.575000	26.981540
2022    Si       1     MMT1      Si    2022	2.100000	28.085380
2023    Si       1     MMT1      Si    2023	2.100000	28.085380
2024    Op       1     MMT1      Op    2024	-1.050000	15.999410
2025   Omg       1     MMT1     Omg    2025	-1.180833	15.999410
2026    Oh       1     MMT1      Oh    2026	-0.950000	15.999410
2027    Ob       1     MMT1      Ob    2027	-1.050000	15.999410
2028    Ob       1     MMT1      Ob    2028	-1.050000	15.999410
2029    Ob       1     MMT1      Ob    2029	-1.050000	15.999410
2030     H       1     MMT1       H    2030	0.425000	1.007940
2031    Al       1     MMT1      Al    2031	1.575000	26.981540
2032    Si       1     MMT1      Si    2032	2.100000	28.085380
2033    Si       1     MMT1      Si    2033	2.100000	28.085380
2034    Op       1     MMT1      Op    2034	-1.050000	15.999410
2035    Op       1     MMT1      Op    2035	-1.050000	15.999410
2036    Oh       1     MMT1      Oh    2036	-0.950000	15.999410
2037    Ob       1     MMT1      Ob    2037	-1.050000	15.999410
2038    Ob       1     MMT1      Ob    2038	-1.050000	15.999410
2039    Ob       1     MMT1      Ob    2039	-1.050000	15.999410
2040     H       1     MMT1       H    2040	0.425000	1.007940
2041   Mgo       1     MMT1     Mgo    2041	1.360000	24.305000
2042    Si       1     MMT1      Si    2042	2.100000	28.085380
2043    Si       1     MMT1      Si    2043	2.100000	28.085380
2044   Omg       1     MMT1     Omg    2044	-1.180833	15.999410
2045   Omg       1     MMT1     Omg    2045	-1.180833	15.999410
2046  Ohmg       1     MMT1    Ohmg    2046	-1.080833	15.999410
2047    Ob       1     MMT1      Ob    2047	-1.050000	15.999410
2048    Ob       1     MMT1      Ob    2048	-1.050000	15.999410
2049    Ob       1     MMT1      Ob    2049	-1.050000	15.999410
2050     H       1     MMT1       H    2050	0.425000	1.007940
2051    Al       1     MMT1      Al    2051	1.575000	26.981540
2052    Si       1     MMT1      Si    2052	2.100000	28.085380
2053    Si       1     MMT1      Si    2053	2.100000	28.085380
2054    Op       1     MMT1      Op    2054	-1.050000	15.999410
2055    Op       1     MMT1      Op    2055	-1.050000	15.999410
2056    Oh       1     MMT1      Oh    2056	-0.950000	15.999410
2057    Ob       1     MMT1      Ob    2057	-1.050000	15.999410
2058    Ob       1     MMT1      Ob    2058	-1.050000	15.999410
2059    Ob       1     MMT1      Ob    2059	-1.050000	15.999410
2060     H       1     MMT1       H    2060	0.425000	1.007940
2061    Al       1     MMT1      Al    2061	1.575000	26.981540
2062    Si       1     MMT1      Si    2062	2.100000	28.085380
2063    Si       1     MMT1      Si    2063	2.100000	28.085380
2064   Omg       1     MMT1     Omg    2064	-1.180833	15.999410
2065    Op       1     MMT1      Op    2065	-1.050000	15.999410
2066    Oh       1     MMT1      Oh    2066	-0.950000	15.999410
2067    Ob       1     MMT1      Ob    2067	-1.050000	15.999410
2068    Ob       1     MMT1      Ob    2068	-1.050000	15.999410
2069    Ob       1     MMT1      Ob    2069	-1.050000	15.999410
2070     H       1     MMT1       H    2070	0.425000	1.007940
2071    Al       1     MMT1      Al    2071	1.575000	26.981540
2072    Si       1     MMT1      Si    2072	2.100000	28.085380
2073    Si       1     MMT1      Si    2073	2.100000	28.085380
2074    Op       1     MMT1      Op    2074	-1.050000	15.999410
2075   Omg       1     MMT1     Omg    2075	-1.180833	15.999410
2076  Ohmg       1     MMT1    Ohmg    2076	-1.080833	15.999410
2077    Ob       1     MMT1      Ob    2077	-1.050000	15.999410
2078    Ob       1     MMT1      Ob    2078	-1.050000	15.999410
2079    Ob       1     MMT1      Ob    2079	-1.050000	15.999410
2080     H       1     MMT1       H    2080	0.425000	1.007940
2081    Al       1     MMT1      Al    2081	1.575000	26.981540
2082    Si       1     MMT1      Si    2082	2.100000	28.085380
2083    Si       1     MMT1      Si    2083	2.100000	28.085380
2084   Omg       1     MMT1     Omg    2084	-1.180833	15.999410
2085    Op       1     MMT1      Op    2085	-1.050000	15.999410
2086    Oh       1     MMT1      Oh    2086	-0.950000	15.999410
2087    Ob       1     MMT1      Ob    2087	-1.050000	15.999410
2088    Ob       1     MMT1      Ob    2088	-1.050000	15.999410
2089    Ob       1     MMT1      Ob    2089	-1.050000	15.999410
2090     H       1     MMT1       H    2090	0.425000	1.007940
2091    Al       1     MMT1      Al    2091	1.575000	26.981540
2092    Si       1     MMT1      Si    2092	2.100000	28.085380
2093    Si       1     MMT1      Si    2093	2.100000	28.085380
2094    Op       1     MMT1      Op    2094	-1.050000	15.999410
2095   Omg       1     MMT1     Omg    2095	-1.180833	15.999410
2096  Ohmg       1     MMT1    Ohmg    2096	-1.080833	15.999410
2097    Ob       1     MMT1      Ob    2097	-1.050000	15.999410
2098    Ob       1     MMT1      Ob    2098	-1.050000	15.999410
2099    Ob       1     MMT1      Ob    2099	-1.050000	15.999410
2100     H       1     MMT1       H    2100	0.425000	1.007940
2101   Mgo       1     MMT1     Mgo    2101	1.360000	24.305000
2102    Si       1     MMT1      Si    2102	2.100000	28.085380
2103    Si       1     MMT1      Si    2103	2.100000	28.085380
2104   Omg       1     MMT1     Omg    2104	-1.180833	15.999410
2105   Omg       1     MMT1     Omg    2105	-1.180833	15.999410
2106  Ohmg       1     MMT1    Ohmg    2106	-1.080833	15.999410
2107    Ob       1     MMT1      Ob    2107	-1.050000	15.999410
2108    Ob       1     MMT1      Ob    2108	-1.050000	15.999410
2109    Ob       1     MMT1      Ob    2109	-1.050000	15.999410
2110     H       1     MMT1       H    2110	0.425000	1.007940
2111    Al       1     MMT1      Al    2111	1.575000	26.981540
2112    Si       1     MMT1      Si    2112	2.100000	28.085380
2113    Si       1     MMT1      Si    2113	2.100000	28.085380
2114    Op       1     MMT1      Op    2114	-1.050000	15.999410
2115    Op       1     MMT1      Op    2115	-1.050000	15.999410
2116    Oh       1     MMT1      Oh    2116	-0.950000	15.999410
2117    Ob       1     MMT1      Ob    2117	-1.050000	15.999410
2118    Ob       1     MMT1      Ob    2118	-1.050000	15.999410
2119    Ob       1     MMT1      Ob    2119	-1.050000	15.999410
2120     H       1     MMT1       H    2120	0.425000	1.007940
2121    Al       1     MMT1      Al    2121	1.575000	26.981540
2122    Si       1     MMT1      Si    2122	2.100000	28.085380
2123    Si       1     MMT1      Si    2123	2.100000	28.085380
2124   Omg       1     MMT1     Omg    2124	-1.180833	15.999410
2125    Op       1     MMT1      Op    2125	-1.050000	15.999410
2126    Oh       1     MMT1      Oh    2126	-0.950000	15.999410
2127    Ob       1     MMT1      Ob    2127	-1.050000	15.999410
2128    Ob       1     MMT1      Ob    2128	-1.050000	15.999410
2129    Ob       1     MMT1      Ob    2129	-1.050000	15.999410
2130     H       1     MMT1       H    2130	0.425000	1.007940
2131    Al       1     MMT1      Al    2131	1.575000	26.981540
2132    Si       1     MMT1      Si    2132	2.100000	28.085380
2133    Si       1     MMT1      Si    2133	2.100000	28.085380
2134    Op       1     MMT1      Op    2134	-1.050000	15.999410
2135    Op       1     MMT1      Op    2135	-1.050000	15.999410
2136  Ohmg       1     MMT1    Ohmg    2136	-1.080833	15.999410
2137    Ob       1     MMT1      Ob    2137	-1.050000	15.999410
2138    Ob       1     MMT1      Ob    2138	-1.050000	15.999410
2139    Ob       1     MMT1      Ob    2139	-1.050000	15.999410
2140     H       1     MMT1       H    2140	0.425000	1.007940
2141    Al       1     MMT1      Al    2141	1.575000	26.981540
2142    Si       1     MMT1      Si    2142	2.100000	28.085380
2143    Si       1     MMT1      Si    2143	2.100000	28.085380
2144   Omg       1     MMT1     Omg    2144	-1.180833	15.999410
2145    Op       1     MMT1      Op    2145	-1.050000	15.999410
2146  Ohmg       1     MMT1    Ohmg    2146	-1.080833	15.999410
2147    Ob       1     MMT1      Ob    2147	-1.050000	15.999410
2148    Ob       1     MMT1      Ob    2148	-1.050000	15.999410
2149    Ob       1     MMT1      Ob    2149	-1.050000	15.999410
2150     H       1     MMT1       H    2150	0.425000	1.007940
2151    Al       1     MMT1      Al    2151	1.575000	26.981540
2152    Si       1     MMT1      Si    2152	2.100000	28.085380
2153    Si       1     MMT1      Si    2153	2.100000	28.085380
2154   Omg       1     MMT1     Omg    2154	-1.180833	15.999410
2155    Op       1     MMT1      Op    2155	-1.050000	15.999410
2156    Oh       1     MMT1      Oh    2156	-0.950000	15.999410
2157    Ob       1     MMT1      Ob    2157	-1.050000	15.999410
2158    Ob       1     MMT1      Ob    2158	-1.050000	15.999410
2159    Ob       1     MMT1      Ob    2159	-1.050000	15.999410
2160     H       1     MMT1       H    2160	0.425000	1.007940
2161   Mgo       1     MMT1     Mgo    2161	1.360000	24.305000
2162    Si       1     MMT1      Si    2162	2.100000	28.085380
2163    Si       1     MMT1      Si    2163	2.100000	28.085380
2164   Omg       1     MMT1     Omg    2164	-1.180833	15.999410
2165   Omg       1     MMT1     Omg    2165	-1.180833	15.999410
2166  Ohmg       1     MMT1    Ohmg    2166	-1.080833	15.999410
2167    Ob       1     MMT1      Ob    2167	-1.050000	15.999410
2168    Ob       1     MMT1      Ob    2168	-1.050000	15.999410
2169    Ob       1     MMT1      Ob    2169	-1.050000	15.999410
2170     H       1     MMT1       H    2170	0.425000	1.007940
2171   Mgo       1     MMT1     Mgo    2171	1.360000	24.305000
2172    Si       1     MMT1      Si    2172	2.100000	28.085380
2173    Si       1     MMT1      Si    2173	2.100000	28.085380
2174   Omg       1     MMT1     Omg    2174	-1.180833	15.999410
2175   Omg       1     MMT1     Omg    2175	-1.180833	15.999410
2176    Oh       1     MMT1      Oh    2176	-0.950000	15.999410
2177    Ob       1     MMT1      Ob    2177	-1.050000	15.999410
2178    Ob       1     MMT1      Ob    2178	-1.050000	15.999410
2179    Ob       1     MMT1      Ob    2179	-1.050000	15.999410
2180     H       1     MMT1       H    2180	0.425000	1.007940
2181    Al       1     MMT1      Al    2181	1.575000	26.981540
2182    Si       1     MMT1      Si    2182	2.100000	28.085380
2183    Si       1     MMT1      Si    2183	2.100000	28.085380
2184   Omg       1     MMT1     Omg    2184	-1.180833	15.999410
2185   Omg       1     MMT1     Omg    2185	-1.180833	15.999410
2186    Oh       1     MMT1      Oh    2186	-0.950000	15.999410
2187    Ob       1     MMT1      Ob    2187	-1.050000	15.999410
2188    Ob       1     MMT1      Ob    2188	-1.050000	15.999410
2189    Ob       1     MMT1      Ob    2189	-1.050000	15.999410
2190     H       1     MMT1       H    2190	0.425000	1.007940
2191    Al       1     MMT1      Al    2191	1.575000	26.981540
2192    Si       1     MMT1      Si    2192	2.100000	28.085380
2193    Si       1     MMT1      Si    2193	2.100000	28.085380
2194    Op       1     MMT1      Op    2194	-1.050000	15.999410
2195   Omg       1     MMT1     Omg    2195	-1.180833	15.999410
2196  Ohmg       1     MMT1    Ohmg    2196	-1.080833	15.999410
2197    Ob       1     MMT1      Ob    2197	-1.050000	15.999410
2198    Ob       1     MMT1      Ob    2198	-1.050000	15.999410
2199    Ob       1     MMT1      Ob    2199	-1.050000	15.999410
2200     H       1     MMT1       H    2200	0.425000	1.007940
2201   Mgo       1     MMT1     Mgo    2201	1.360000	24.305000
2202    Si       1     MMT1      Si    2202	2.100000	28.085380
2203    Si       1     MMT1      Si    2203	2.100000	28.085380
2204   Omg       1     MMT1     Omg    2204	-1.180833	15.999410
2205   Omg       1     MMT1     Omg    2205	-1.180833	15.999410
2206  Ohmg       1     MMT1    Ohmg    2206	-1.080833	15.999410
2207    Ob       1     MMT1      Ob    2207	-1.050000	15.999410
2208    Ob       1     MMT1      Ob    2208	-1.050000	15.999410
2209    Ob       1     MMT1      Ob    2209	-1.050000	15.999410
2210     H       1     MMT1       H    2210	0.425000	1.007940
2211    Al       1     MMT1      Al    2211	1.575000	26.981540
2212    Si       1     MMT1      Si    2212	2.100000	28.085380
2213    Si       1     MMT1      Si    2213	2.100000	28.085380
2214    Op       1     MMT1      Op    2214	-1.050000	15.999410
2215   Omg       1     MMT1     Omg    2215	-1.180833	15.999410
2216  Ohmg       1     MMT1    Ohmg    2216	-1.080833	15.999410
2217    Ob       1     MMT1      Ob    2217	-1.050000	15.999410
2218    Ob       1     MMT1      Ob    2218	-1.050000	15.999410
2219    Ob       1     MMT1      Ob    2219	-1.050000	15.999410
2220     H       1     MMT1       H    2220	0.425000	1.007940
2221   Mgo       1     MMT1     Mgo    2221	1.360000	24.305000
2222    Si       1     MMT1      Si    2222	2.100000	28.085380
2223    Si       1     MMT1      Si    2223	2.100000	28.085380
2224   Omg       1     MMT1     Omg    2224	-1.180833	15.999410
2225   Omg       1     MMT1     Omg    2225	-1.180833	15.999410
2226  Ohmg       1     MMT1    Ohmg    2226	-1.080833	15.999410
2227    Ob       1     MMT1      Ob    2227	-1.050000	15.999410
2228    Ob       1     MMT1      Ob    2228	-1.050000	15.999410
2229    Ob       1     MMT1      Ob    2229	-1.050000	15.999410
2230     H       1     MMT1       H    2230	0.425000	1.007940
2231    Al       1     MMT1      Al    2231	1.575000	26.981540
2232    Si       1     MMT1      Si    2232	2.100000	28.085380
2233    Si       1     MMT1      Si    2233	2.100000	28.085380
2234    Op       1     MMT1      Op    2234	-1.050000	15.999410
2235   Omg       1     MMT1     Omg    2235	-1.180833	15.999410
2236  Ohmg       1     MMT1    Ohmg    2236	-1.080833	15.999410
2237    Ob       1     MMT1      Ob    2237	-1.050000	15.999410
2238    Ob       1     MMT1      Ob    2238	-1.050000	15.999410
2239    Ob       1     MMT1      Ob    2239	-1.050000	15.999410
2240     H       1     MMT1       H    2240	0.425000	1.007940
2241    Al       1     MMT1      Al    2241	1.575000	26.981540
2242    Si       1     MMT1      Si    2242	2.100000	28.085380
2243    Si       1     MMT1      Si    2243	2.100000	28.085380
2244   Omg       1     MMT1     Omg    2244	-1.180833	15.999410
2245    Op       1     MMT1      Op    2245	-1.050000	15.999410
2246    Oh       1     MMT1      Oh    2246	-0.950000	15.999410
2247    Ob       1     MMT1      Ob    2247	-1.050000	15.999410
2248    Ob       1     MMT1      Ob    2248	-1.050000	15.999410
2249    Ob       1     MMT1      Ob    2249	-1.050000	15.999410
2250     H       1     MMT1       H    2250	0.425000	1.007940
2251    Al       1     MMT1      Al    2251	1.575000	26.981540
2252    Si       1     MMT1      Si    2252	2.100000	28.085380
2253    Si       1     MMT1      Si    2253	2.100000	28.085380
2254    Op       1     MMT1      Op    2254	-1.050000	15.999410
2255    Op       1     MMT1      Op    2255	-1.050000	15.999410
2256  Ohmg       1     MMT1    Ohmg    2256	-1.080833	15.999410
2257    Ob       1     MMT1      Ob    2257	-1.050000	15.999410
2258    Ob       1     MMT1      Ob    2258	-1.050000	15.999410
2259    Ob       1     MMT1      Ob    2259	-1.050000	15.999410
2260     H       1     MMT1       H    2260	0.425000	1.007940
2261    Al       1     MMT1      Al    2261	1.575000	26.981540
2262    Si       1     MMT1      Si    2262	2.100000	28.085380
2263    Si       1     MMT1      Si    2263	2.100000	28.085380
2264   Omg       1     MMT1     Omg    2264	-1.180833	15.999410
2265    Op       1     MMT1      Op    2265	-1.050000	15.999410
2266  Ohmg       1     MMT1    Ohmg    2266	-1.080833	15.999410
2267    Ob       1     MMT1      Ob    2267	-1.050000	15.999410
2268    Ob       1     MMT1      Ob    2268	-1.050000	15.999410
2269    Ob       1     MMT1      Ob    2269	-1.050000	15.999410
2270     H       1     MMT1       H    2270	0.425000	1.007940
2271    Al       1     MMT1      Al    2271	1.575000	26.981540
2272    Si       1     MMT1      Si    2272	2.100000	28.085380
2273    Si       1     MMT1      Si    2273	2.100000	28.085380
2274   Omg       1     MMT1     Omg    2274	-1.180833	15.999410
2275    Op       1     MMT1      Op    2275	-1.050000	15.999410
2276    Oh       1     MMT1      Oh    2276	-0.950000	15.999410
2277    Ob       1     MMT1      Ob    2277	-1.050000	15.999410
2278    Ob       1     MMT1      Ob    2278	-1.050000	15.999410
2279    Ob       1     MMT1      Ob    2279	-1.050000	15.999410
2280     H       1     MMT1       H    2280	0.425000	1.007940
2281    Al       1     MMT1      Al    2281	1.575000	26.981540
2282    Si       1     MMT1      Si    2282	2.100000	28.085380
2283    Si       1     MMT1      Si    2283	2.100000	28.085380
2284    Op       1     MMT1      Op    2284	-1.050000	15.999410
2285    Op       1     MMT1      Op    2285	-1.050000	15.999410
2286    Oh       1     MMT1      Oh    2286	-0.950000	15.999410
2287    Ob       1     MMT1      Ob    2287	-1.050000	15.999410
2288    Ob       1     MMT1      Ob    2288	-1.050000	15.999410
2289    Ob       1     MMT1      Ob    2289	-1.050000	15.999410
2290     H       1     MMT1       H    2290	0.425000	1.007940
2291   Mgo       1     MMT1     Mgo    2291	1.360000	24.305000
2292    Si       1     MMT1      Si    2292	2.100000	28.085380
2293    Si       1     MMT1      Si    2293	2.100000	28.085380
2294   Omg       1     MMT1     Omg    2294	-1.180833	15.999410
2295   Omg       1     MMT1     Omg    2295	-1.180833	15.999410
2296    Oh       1     MMT1      Oh    2296	-0.950000	15.999410
2297    Ob       1     MMT1      Ob    2297	-1.050000	15.999410
2298    Ob       1     MMT1      Ob    2298	-1.050000	15.999410
2299    Ob       1     MMT1      Ob    2299	-1.050000	15.999410
2300     H       1     MMT1       H    2300	0.425000	1.007940
2301    Al       1     MMT1      Al    2301	1.575000	26.981540
2302    Si       1     MMT1      Si    2302	2.100000	28.085380
2303    Si       1     MMT1      Si    2303	2.100000	28.085380
2304    Op       1     MMT1      Op    2304	-1.050000	15.999410
2305   Omg       1     MMT1     Omg    2305	-1.180833	15.999410
2306    Oh       1     MMT1      Oh    2306	-0.950000	15.999410
2307    Ob       1     MMT1      Ob    2307	-1.050000	15.999410
2308    Ob       1     MMT1      Ob    2308	-1.050000	15.999410
2309    Ob       1     MMT1      Ob    2309	-1.050000	15.999410
2310     H       1     MMT1       H    2310	0.425000	1.007940
2311    Al       1     MMT1      Al    2311	1.575000	26.981540
2312    Si       1     MMT1      Si    2312	2.100000	28.085380
2313    Si       1     MMT1      Si    2313	2.100000	28.085380
2314    Op       1     MMT1      Op    2314	-1.050000	15.999410
2315    Op       1     MMT1      Op    2315	-1.050000	15.999410
2316    Oh       1     MMT1      Oh    2316	-0.950000	15.999410
2317    Ob       1     MMT1      Ob    2317	-1.050000	15.999410
2318    Ob       1     MMT1      Ob    2318	-1.050000	15.999410
2319    Ob       1     MMT1      Ob    2319	-1.050000	15.999410
2320     H       1     MMT1       H    2320	0.425000	1.007940
2321    Al       1     MMT1      Al    2321	1.575000	26.981540
2322    Si       1     MMT1      Si    2322	2.100000	28.085380
2323    Si       1     MMT1      Si    2323	2.100000	28.085380
2324    Op       1     MMT1      Op    2324	-1.050000	15.999410
2325    Op       1     MMT1      Op    2325	-1.050000	15.999410
2326    Oh       1     MMT1      Oh    2326	-0.950000	15.999410
2327    Ob       1     MMT1      Ob    2327	-1.050000	15.999410
2328    Ob       1     MMT1      Ob    2328	-1.050000	15.999410
2329    Ob       1     MMT1      Ob    2329	-1.050000	15.999410
2330     H       1     MMT1       H    2330	0.425000	1.007940
2331    Al       1     MMT1      Al    2331	1.575000	26.981540
2332    Si       1     MMT1      Si    2332	2.100000	28.085380
2333    Si       1     MMT1      Si    2333	2.100000	28.085380
2334    Op       1     MMT1      Op    2334	-1.050000	15.999410
2335    Op       1     MMT1      Op    2335	-1.050000	15.999410
2336    Oh       1     MMT1      Oh    2336	-0.950000	15.999410
2337    Ob       1     MMT1      Ob    2337	-1.050000	15.999410
2338    Ob       1     MMT1      Ob    2338	-1.050000	15.999410
2339    Ob       1     MMT1      Ob    2339	-1.050000	15.999410
2340     H       1     MMT1       H    2340	0.425000	1.007940
2341    Al       1     MMT1      Al    2341	1.575000	26.981540
2342    Si       1     MMT1      Si    2342	2.100000	28.085380
2343    Si       1     MMT1      Si    2343	2.100000	28.085380
2344    Op       1     MMT1      Op    2344	-1.050000	15.999410
2345    Op       1     MMT1      Op    2345	-1.050000	15.999410
2346    Oh       1     MMT1      Oh    2346	-0.950000	15.999410
2347    Ob       1     MMT1      Ob    2347	-1.050000	15.999410
2348    Ob       1     MMT1      Ob    2348	-1.050000	15.999410
2349    Ob       1     MMT1      Ob    2349	-1.050000	15.999410
2350     H       1     MMT1       H    2350	0.425000	1.007940
2351    Al       1     MMT1      Al    2351	1.575000	26.981540
2352    Si       1     MMT1      Si    2352	2.100000	28.085380
2353    Si       1     MMT1      Si    2353	2.100000	28.085380
2354    Op       1     MMT1      Op    2354	-1.050000	15.999410
2355    Op       1     MMT1      Op    2355	-1.050000	15.999410
2356    Oh       1     MMT1      Oh    2356	-0.950000	15.999410
2357    Ob       1     MMT1      Ob    2357	-1.050000	15.999410
2358    Ob       1     MMT1      Ob    2358	-1.050000	15.999410
2359    Ob       1     MMT1      Ob    2359	-1.050000	15.999410
2360     H       1     MMT1       H    2360	0.425000	1.007940
2361    Al       1     MMT1      Al    2361	1.575000	26.981540
2362    Si       1     MMT1      Si    2362	2.100000	28.085380
2363    Si       1     MMT1      Si    2363	2.100000	28.085380
2364    Op       1     MMT1      Op    2364	-1.050000	15.999410
2365   Omg       1     MMT1     Omg    2365	-1.180833	15.999410
2366    Oh       1     MMT1      Oh    2366	-0.950000	15.999410
2367    Ob       1     MMT1      Ob    2367	-1.050000	15.999410
2368    Ob       1     MMT1      Ob    2368	-1.050000	15.999410
2369    Ob       1     MMT1      Ob    2369	-1.050000	15.999410
2370     H       1     MMT1       H    2370	0.425000	1.007940
2371    Al       1     MMT1      Al    2371	1.575000	26.981540
2372    Si       1     MMT1      Si    2372	2.100000	28.085380
2373    Si       1     MMT1      Si    2373	2.100000	28.085380
2374    Op       1     MMT1      Op    2374	-1.050000	15.999410
2375   Omg       1     MMT1     Omg    2375	-1.180833	15.999410
2376  Ohmg       1     MMT1    Ohmg    2376	-1.080833	15.999410
2377    Ob       1     MMT1      Ob    2377	-1.050000	15.999410
2378    Ob       1     MMT1      Ob    2378	-1.050000	15.999410
2379    Ob       1     MMT1      Ob    2379	-1.050000	15.999410
2380     H       1     MMT1       H    2380	0.425000	1.007940
2381   Mgo       1     MMT1     Mgo    2381	1.360000	24.305000
2382    Si       1     MMT1      Si    2382	2.100000	28.085380
2383    Si       1     MMT1      Si    2383	2.100000	28.085380
2384    Op       1     MMT1      Op    2384	-1.050000	15.999410
2385   Omg       1     MMT1     Omg    2385	-1.180833	15.999410
2386  Ohmg       1     MMT1    Ohmg    2386	-1.080833	15.999410
2387    Ob       1     MMT1      Ob    2387	-1.050000	15.999410
2388    Ob       1     MMT1      Ob    2388	-1.050000	15.999410
2389    Ob       1     MMT1      Ob    2389	-1.050000	15.999410
2390     H       1     MMT1       H    2390	0.425000	1.007940
2391    Al       1     MMT1      Al    2391	1.575000	26.981540
2392    Si       1     MMT1      Si    2392	2.100000	28.085380
2393    Si       1     MMT1      Si    2393	2.100000	28.085380
2394   Omg       1     MMT1     Omg    2394	-1.180833	15.999410
2395   Omg       1     MMT1     Omg    2395	-1.180833	15.999410
2396    Oh       1     MMT1      Oh    2396	-0.950000	15.999410
2397    Ob       1     MMT1      Ob    2397	-1.050000	15.999410
2398    Ob       1     MMT1      Ob    2398	-1.050000	15.999410
2399    Ob       1     MMT1      Ob    2399	-1.050000	15.999410
2400     H       1     MMT1       H    2400	0.425000	1.007940
2401    Al       1     MMT1      Al    2401	1.575000	26.981540
2402    Si       1     MMT1      Si    2402	2.100000	28.085380
2403    Si       1     MMT1      Si    2403	2.100000	28.085380
2404    Op       1     MMT1      Op    2404	-1.050000	15.999410
2405    Op       1     MMT1      Op    2405	-1.050000	15.999410
2406  Ohmg       1     MMT1    Ohmg    2406	-1.080833	15.999410
2407    Ob       1     MMT1      Ob    2407	-1.050000	15.999410
2408    Ob       1     MMT1      Ob    2408	-1.050000	15.999410
2409    Ob       1     MMT1      Ob    2409	-1.050000	15.999410
2410     H       1     MMT1       H    2410	0.425000	1.007940
2411    Al       1     MMT1      Al    2411	1.575000	26.981540
2412    Si       1     MMT1      Si    2412	2.100000	28.085380
2413    Si       1     MMT1      Si    2413	2.100000	28.085380
2414   Omg       1     MMT1     Omg    2414	-1.180833	15.999410
2415    Op       1     MMT1      Op    2415	-1.050000	15.999410
2416    Oh       1     MMT1      Oh    2416	-0.950000	15.999410
2417    Ob       1     MMT1      Ob    2417	-1.050000	15.999410
2418    Ob       1     MMT1      Ob    2418	-1.050000	15.999410
2419    Ob       1     MMT1      Ob    2419	-1.050000	15.999410
2420     H       1     MMT1       H    2420	0.425000	1.007940
2421    Al       1     MMT1      Al    2421	1.575000	26.981540
2422    Si       1     MMT1      Si    2422	2.100000	28.085380
2423    Si       1     MMT1      Si    2423	2.100000	28.085380
2424    Op       1     MMT1      Op    2424	-1.050000	15.999410
2425    Op       1     MMT1      Op    2425	-1.050000	15.999410
2426    Oh       1     MMT1      Oh    2426	-0.950000	15.999410
2427    Ob       1     MMT1      Ob    2427	-1.050000	15.999410
2428    Ob       1     MMT1      Ob    2428	-1.050000	15.999410
2429    Ob       1     MMT1      Ob    2429	-1.050000	15.999410
2430     H       1     MMT1       H    2430	0.425000	1.007940
2431   Mgo       1     MMT1     Mgo    2431	1.360000	24.305000
2432    Si       1     MMT1      Si    2432	2.100000	28.085380
2433    Si       1     MMT1      Si    2433	2.100000	28.085380
2434    Op       1     MMT1      Op    2434	-1.050000	15.999410
2435    Op       1     MMT1      Op    2435	-1.050000	15.999410
2436  Ohmg       1     MMT1    Ohmg    2436	-1.080833	15.999410
2437    Ob       1     MMT1      Ob    2437	-1.050000	15.999410
2438    Ob       1     MMT1      Ob    2438	-1.050000	15.999410
2439    Ob       1     MMT1      Ob    2439	-1.050000	15.999410
2440     H       1     MMT1       H    2440	0.425000	1.007940
2441   Mgo       1     MMT1     Mgo    2441	1.360000	24.305000
2442    Si       1     MMT1      Si    2442	2.100000	28.085380
2443    Si       1     MMT1      Si    2443	2.100000	28.085380
2444   Omg       1     MMT1     Omg    2444	-1.180833	15.999410
2445   Omg       1     MMT1     Omg    2445	-1.180833	15.999410
2446  Ohmg       1     MMT1    Ohmg    2446	-1.080833	15.999410
2447    Ob       1     MMT1      Ob    2447	-1.050000	15.999410
2448    Ob       1     MMT1      Ob    2448	-1.050000	15.999410
2449    Ob       1     MMT1      Ob    2449	-1.050000	15.999410
2450     H       1     MMT1       H    2450	0.425000	1.007940
2451    Al       1     MMT1      Al    2451	1.575000	26.981540
2452    Si       1     MMT1      Si    2452	2.100000	28.085380
2453    Si       1     MMT1      Si    2453	2.100000	28.085380
2454    Op       1     MMT1      Op    2454	-1.050000	15.999410
2455    Op       1     MMT1      Op    2455	-1.050000	15.999410
2456  Ohmg       1     MMT1    Ohmg    2456	-1.080833	15.999410
2457    Ob       1     MMT1      Ob    2457	-1.050000	15.999410
2458    Ob       1     MMT1      Ob    2458	-1.050000	15.999410
2459    Ob       1     MMT1      Ob    2459	-1.050000	15.999410
2460     H       1     MMT1       H    2460	0.425000	1.007940
2461    Al       1     MMT1      Al    2461	1.575000	26.981540
2462    Si       1     MMT1      Si    2462	2.100000	28.085380
2463    Si       1     MMT1      Si    2463	2.100000	28.085380
2464   Omg       1     MMT1     Omg    2464	-1.180833	15.999410
2465    Op       1     MMT1      Op    2465	-1.050000	15.999410
2466  Ohmg       1     MMT1    Ohmg    2466	-1.080833	15.999410
2467    Ob       1     MMT1      Ob    2467	-1.050000	15.999410
2468    Ob       1     MMT1      Ob    2468	-1.050000	15.999410
2469    Ob       1     MMT1      Ob    2469	-1.050000	15.999410
2470     H       1     MMT1       H    2470	0.425000	1.007940
2471    Al       1     MMT1      Al    2471	1.575000	26.981540
2472    Si       1     MMT1      Si    2472	2.100000	28.085380
2473    Si       1     MMT1      Si    2473	2.100000	28.085380
2474   Omg       1     MMT1     Omg    2474	-1.180833	15.999410
2475   Omg       1     MMT1     Omg    2475	-1.180833	15.999410
2476  Ohmg       1     MMT1    Ohmg    2476	-1.080833	15.999410
2477    Ob       1     MMT1      Ob    2477	-1.050000	15.999410
2478    Ob       1     MMT1      Ob    2478	-1.050000	15.999410
2479    Ob       1     MMT1      Ob    2479	-1.050000	15.999410
2480     H       1     MMT1       H    2480	0.425000	1.007940
2481   Mgo       1     MMT1     Mgo    2481	1.360000	24.305000
2482    Si       1     MMT1      Si    2482	2.100000	28.085380
2483    Si       1     MMT1      Si    2483	2.100000	28.085380
2484   Omg       1     MMT1     Omg    2484	-1.180833	15.999410
2485   Omg       1     MMT1     Omg    2485	-1.180833	15.999410
2486  Ohmg       1     MMT1    Ohmg    2486	-1.080833	15.999410
2487    Ob       1     MMT1      Ob    2487	-1.050000	15.999410
2488    Ob       1     MMT1      Ob    2488	-1.050000	15.999410
2489    Ob       1     MMT1      Ob    2489	-1.050000	15.999410
2490     H       1     MMT1       H    2490	0.425000	1.007940
2491   Mgo       1     MMT1     Mgo    2491	1.360000	24.305000
2492    Si       1     MMT1      Si    2492	2.100000	28.085380
2493    Si       1     MMT1      Si    2493	2.100000	28.085380
2494   Omg       1     MMT1     Omg    2494	-1.180833	15.999410
2495   Omg       1     MMT1     Omg    2495	-1.180833	15.999410
2496    Oh       1     MMT1      Oh    2496	-0.950000	15.999410
2497    Ob       1     MMT1      Ob    2497	-1.050000	15.999410
2498    Ob       1     MMT1      Ob    2498	-1.050000	15.999410
2499    Ob       1     MMT1      Ob    2499	-1.050000	15.999410
2500     H       1     MMT1       H    2500	0.425000	1.007940
2501    Al       1     MMT1      Al    2501	1.575000	26.981540
2502    Si       1     MMT1      Si    2502	2.100000	28.085380
2503    Si       1     MMT1      Si    2503	2.100000	28.085380
2504   Omg       1     MMT1     Omg    2504	-1.180833	15.999410
2505   Omg       1     MMT1     Omg    2505	-1.180833	15.999410
2506    Oh       1     MMT1      Oh    2506	-0.950000	15.999410
2507    Ob       1     MMT1      Ob    2507	-1.050000	15.999410
2508    Ob       1     MMT1      Ob    2508	-1.050000	15.999410
2509    Ob       1     MMT1      Ob    2509	-1.050000	15.999410
2510     H       1     MMT1       H    2510	0.425000	1.007940
2511    Al       1     MMT1      Al    2511	1.575000	26.981540
2512    Si       1     MMT1      Si    2512	2.100000	28.085380
2513    Si       1     MMT1      Si    2513	2.100000	28.085380
2514    Op       1     MMT1      Op    2514	-1.050000	15.999410
2515   Omg       1     MMT1     Omg    2515	-1.180833	15.999410
2516  Ohmg       1     MMT1    Ohmg    2516	-1.080833	15.999410
2517    Ob       1     MMT1      Ob    2517	-1.050000	15.999410
2518    Ob       1     MMT1      Ob    2518	-1.050000	15.999410
2519    Ob       1     MMT1      Ob    2519	-1.050000	15.999410
2520     H       1     MMT1       H    2520	0.425000	1.007940
2521    Al       1     MMT1      Al    2521	1.575000	26.981540
2522    Si       1     MMT1      Si    2522	2.100000	28.085380
2523    Si       1     MMT1      Si    2523	2.100000	28.085380
2524    Op       1     MMT1      Op    2524	-1.050000	15.999410
2525   Omg       1     MMT1     Omg    2525	-1.180833	15.999410
2526    Oh       1     MMT1      Oh    2526	-0.950000	15.999410
2527    Ob       1     MMT1      Ob    2527	-1.050000	15.999410
2528    Ob       1     MMT1      Ob    2528	-1.050000	15.999410
2529    Ob       1     MMT1      Ob    2529	-1.050000	15.999410
2530     H       1     MMT1       H    2530	0.425000	1.007940
2531    Al       1     MMT1      Al    2531	1.575000	26.981540
2532    Si       1     MMT1      Si    2532	2.100000	28.085380
2533    Si       1     MMT1      Si    2533	2.100000	28.085380
2534    Op       1     MMT1      Op    2534	-1.050000	15.999410
2535   Omg       1     MMT1     Omg    2535	-1.180833	15.999410
2536  Ohmg       1     MMT1    Ohmg    2536	-1.080833	15.999410
2537    Ob       1     MMT1      Ob    2537	-1.050000	15.999410
2538    Ob       1     MMT1      Ob    2538	-1.050000	15.999410
2539    Ob       1     MMT1      Ob    2539	-1.050000	15.999410
2540     H       1     MMT1       H    2540	0.425000	1.007940
2541   Mgo       1     MMT1     Mgo    2541	1.360000	24.305000
2542    Si       1     MMT1      Si    2542	2.100000	28.085380
2543    Si       1     MMT1      Si    2543	2.100000	28.085380
2544    Op       1     MMT1      Op    2544	-1.050000	15.999410
2545   Omg       1     MMT1     Omg    2545	-1.180833	15.999410
2546  Ohmg       1     MMT1    Ohmg    2546	-1.080833	15.999410
2547    Ob       1     MMT1      Ob    2547	-1.050000	15.999410
2548    Ob       1     MMT1      Ob    2548	-1.050000	15.999410
2549    Ob       1     MMT1      Ob    2549	-1.050000	15.999410
2550     H       1     MMT1       H    2550	0.425000	1.007940
2551    Al       1     MMT1      Al    2551	1.575000	26.981540
2552    Si       1     MMT1      Si    2552	2.100000	28.085380
2553    Si       1     MMT1      Si    2553	2.100000	28.085380
2554   Omg       1     MMT1     Omg    2554	-1.180833	15.999410
2555   Omg       1     MMT1     Omg    2555	-1.180833	15.999410
2556    Oh       1     MMT1      Oh    2556	-0.950000	15.999410
2557    Ob       1     MMT1      Ob    2557	-1.050000	15.999410
2558    Ob       1     MMT1      Ob    2558	-1.050000	15.999410
2559    Ob       1     MMT1      Ob    2559	-1.050000	15.999410
2560     H       1     MMT1       H    2560	0.425000	1.007940
2561    Al       1     MMT1      Al    2561	1.575000	26.981540
2562    Si       1     MMT1      Si    2562	2.100000	28.085380
2563    Si       1     MMT1      Si    2563	2.100000	28.085380
2564   Omg       1     MMT1     Omg    2564	-1.180833	15.999410
2565    Op       1     MMT1      Op    2565	-1.050000	15.999410
2566  Ohmg       1     MMT1    Ohmg    2566	-1.080833	15.999410
2567    Ob       1     MMT1      Ob    2567	-1.050000	15.999410
2568    Ob       1     MMT1      Ob    2568	-1.050000	15.999410
2569    Ob       1     MMT1      Ob    2569	-1.050000	15.999410
2570     H       1     MMT1       H    2570	0.425000	1.007940
2571    Al       1     MMT1      Al    2571	1.575000	26.981540
2572    Si       1     MMT1      Si    2572	2.100000	28.085380
2573    Si       1     MMT1      Si    2573	2.100000	28.085380
2574   Omg       1     MMT1     Omg    2574	-1.180833	15.999410
2575   Omg       1     MMT1     Omg    2575	-1.180833	15.999410
2576  Ohmg       1     MMT1    Ohmg    2576	-1.080833	15.999410
2577    Ob       1     MMT1      Ob    2577	-1.050000	15.999410
2578    Ob       1     MMT1      Ob    2578	-1.050000	15.999410
2579    Ob       1     MMT1      Ob    2579	-1.050000	15.999410
2580     H       1     MMT1       H    2580	0.425000	1.007940
2581   Mgo       1     MMT1     Mgo    2581	1.360000	24.305000
2582    Si       1     MMT1      Si    2582	2.100000	28.085380
2583    Si       1     MMT1      Si    2583	2.100000	28.085380
2584   Omg       1     MMT1     Omg    2584	-1.180833	15.999410
2585   Omg       1     MMT1     Omg    2585	-1.180833	15.999410
2586  Ohmg       1     MMT1    Ohmg    2586	-1.080833	15.999410
2587    Ob       1     MMT1      Ob    2587	-1.050000	15.999410
2588    Ob       1     MMT1      Ob    2588	-1.050000	15.999410
2589    Ob       1     MMT1      Ob    2589	-1.050000	15.999410
2590     H       1     MMT1       H    2590	0.425000	1.007940
2591   Mgo       1     MMT1     Mgo    2591	1.360000	24.305000
2592    Si       1     MMT1      Si    2592	2.100000	28.085380
2593    Si       1     MMT1      Si    2593	2.100000	28.085380
2594    Op       1     MMT1      Op    2594	-1.050000	15.999410
2595    Op       1     MMT1      Op    2595	-1.050000	15.999410
2596  Ohmg       1     MMT1    Ohmg    2596	-1.080833	15.999410
2597    Ob       1     MMT1      Ob    2597	-1.050000	15.999410
2598    Ob       1     MMT1      Ob    2598	-1.050000	15.999410
2599    Ob       1     MMT1      Ob    2599	-1.050000	15.999410
2600     H       1     MMT1       H    2600	0.425000	1.007940
2601   Mgo       1     MMT1     Mgo    2601	1.360000	24.305000
2602    Si       1     MMT1      Si    2602	2.100000	28.085380
2603    Si       1     MMT1      Si    2603	2.100000	28.085380
2604   Omg       1     MMT1     Omg    2604	-1.180833	15.999410
2605   Omg       1     MMT1     Omg    2605	-1.180833	15.999410
2606  Ohmg       1     MMT1    Ohmg    2606	-1.080833	15.999410
2607    Ob       1     MMT1      Ob    2607	-1.050000	15.999410
2608    Ob       1     MMT1      Ob    2608	-1.050000	15.999410
2609    Ob       1     MMT1      Ob    2609	-1.050000	15.999410
2610     H       1     MMT1       H    2610	0.425000	1.007940
2611    Al       1     MMT1      Al    2611	1.575000	26.981540
2612    Si       1     MMT1      Si    2612	2.100000	28.085380
2613    Si       1     MMT1      Si    2613	2.100000	28.085380
2614    Op       1     MMT1      Op    2614	-1.050000	15.999410
2615    Op       1     MMT1      Op    2615	-1.050000	15.999410
2616    Oh       1     MMT1      Oh    2616	-0.950000	15.999410
2617    Ob       1     MMT1      Ob    2617	-1.050000	15.999410
2618    Ob       1     MMT1      Ob    2618	-1.050000	15.999410
2619    Ob       1     MMT1      Ob    2619	-1.050000	15.999410
2620     H       1     MMT1       H    2620	0.425000	1.007940
2621    Al       1     MMT1      Al    2621	1.575000	26.981540
2622    Si       1     MMT1      Si    2622	2.100000	28.085380
2623    Si       1     MMT1      Si    2623	2.100000	28.085380
2624   Omg       1     MMT1     Omg    2624	-1.180833	15.999410
2625    Op       1     MMT1      Op    2625	-1.050000	15.999410
2626    Oh       1     MMT1      Oh    2626	-0.950000	15.999410
2627    Ob       1     MMT1      Ob    2627	-1.050000	15.999410
2628    Ob       1     MMT1      Ob    2628	-1.050000	15.999410
2629    Ob       1     MMT1      Ob    2629	-1.050000	15.999410
2630     H       1     MMT1       H    2630	0.425000	1.007940
2631    Al       1     MMT1      Al    2631	1.575000	26.981540
2632    Si       1     MMT1      Si    2632	2.100000	28.085380
2633    Si       1     MMT1      Si    2633	2.100000	28.085380
2634    Op       1     MMT1      Op    2634	-1.050000	15.999410
2635   Omg       1     MMT1     Omg    2635	-1.180833	15.999410
2636  Ohmg       1     MMT1    Ohmg    2636	-1.080833	15.999410
2637    Ob       1     MMT1      Ob    2637	-1.050000	15.999410
2638    Ob       1     MMT1      Ob    2638	-1.050000	15.999410
2639    Ob       1     MMT1      Ob    2639	-1.050000	15.999410
2640     H       1     MMT1       H    2640	0.425000	1.007940
2641    Al       1     MMT1      Al    2641	1.575000	26.981540
2642    Si       1     MMT1      Si    2642	2.100000	28.085380
2643    Si       1     MMT1      Si    2643	2.100000	28.085380
2644    Op       1     MMT1      Op    2644	-1.050000	15.999410
2645   Omg       1     MMT1     Omg    2645	-1.180833	15.999410
2646    Oh       1     MMT1      Oh    2646	-0.950000	15.999410
2647    Ob       1     MMT1      Ob    2647	-1.050000	15.999410
2648    Ob       1     MMT1      Ob    2648	-1.050000	15.999410
2649    Ob       1     MMT1      Ob    2649	-1.050000	15.999410
2650     H       1     MMT1       H    2650	0.425000	1.007940
2651    Al       1     MMT1      Al    2651	1.575000	26.981540
2652    Si       1     MMT1      Si    2652	2.100000	28.085380
2653    Si       1     MMT1      Si    2653	2.100000	28.085380
2654    Op       1     MMT1      Op    2654	-1.050000	15.999410
2655    Op       1     MMT1      Op    2655	-1.050000	15.999410
2656    Oh       1     MMT1      Oh    2656	-0.950000	15.999410
2657    Ob       1     MMT1      Ob    2657	-1.050000	15.999410
2658    Ob       1     MMT1      Ob    2658	-1.050000	15.999410
2659    Ob       1     MMT1      Ob    2659	-1.050000	15.999410
2660     H       1     MMT1       H    2660	0.425000	1.007940
2661    Al       1     MMT1      Al    2661	1.575000	26.981540
2662    Si       1     MMT1      Si    2662	2.100000	28.085380
2663    Si       1     MMT1      Si    2663	2.100000	28.085380
2664    Op       1     MMT1      Op    2664	-1.050000	15.999410
2665    Op       1     MMT1      Op    2665	-1.050000	15.999410
2666    Oh       1     MMT1      Oh    2666	-0.950000	15.999410
2667    Ob       1     MMT1      Ob    2667	-1.050000	15.999410
2668    Ob       1     MMT1      Ob    2668	-1.050000	15.999410
2669    Ob       1     MMT1      Ob    2669	-1.050000	15.999410
2670     H       1     MMT1       H    2670	0.425000	1.007940
2671    Al       1     MMT1      Al    2671	1.575000	26.981540
2672    Si       1     MMT1      Si    2672	2.100000	28.085380
2673    Si       1     MMT1      Si    2673	2.100000	28.085380
2674   Omg       1     MMT1     Omg    2674	-1.180833	15.999410
2675   Omg       1     MMT1     Omg    2675	-1.180833	15.999410
2676    Oh       1     MMT1      Oh    2676	-0.950000	15.999410
2677    Ob       1     MMT1      Ob    2677	-1.050000	15.999410
2678    Ob       1     MMT1      Ob    2678	-1.050000	15.999410
2679    Ob       1     MMT1      Ob    2679	-1.050000	15.999410
2680     H       1     MMT1       H    2680	0.425000	1.007940
2681    Al       1     MMT1      Al    2681	1.575000	26.981540
2682    Si       1     MMT1      Si    2682	2.100000	28.085380
2683    Si       1     MMT1      Si    2683	2.100000	28.085380
2684   Omg       1     MMT1     Omg    2684	-1.180833	15.999410
2685    Op       1     MMT1      Op    2685	-1.050000	15.999410
2686  Ohmg       1     MMT1    Ohmg    2686	-1.080833	15.999410
2687    Ob       1     MMT1      Ob    2687	-1.050000	15.999410
2688    Ob       1     MMT1      Ob    2688	-1.050000	15.999410
2689    Ob       1     MMT1      Ob    2689	-1.050000	15.999410
2690     H       1     MMT1       H    2690	0.425000	1.007940
2691    Al       1     MMT1      Al    2691	1.575000	26.981540
2692    Si       1     MMT1      Si    2692	2.100000	28.085380
2693    Si       1     MMT1      Si    2693	2.100000	28.085380
2694   Omg       1     MMT1     Omg    2694	-1.180833	15.999410
2695    Op       1     MMT1      Op    2695	-1.050000	15.999410
2696    Oh       1     MMT1      Oh    2696	-0.950000	15.999410
2697    Ob       1     MMT1      Ob    2697	-1.050000	15.999410
2698    Ob       1     MMT1      Ob    2698	-1.050000	15.999410
2699    Ob       1     MMT1      Ob    2699	-1.050000	15.999410
2700     H       1     MMT1       H    2700	0.425000	1.007940
2701    Al       1     MMT1      Al    2701	1.575000	26.981540
2702    Si       1     MMT1      Si    2702	2.100000	28.085380
2703    Si       1     MMT1      Si    2703	2.100000	28.085380
2704   Omg       1     MMT1     Omg    2704	-1.180833	15.999410
2705    Op       1     MMT1      Op    2705	-1.050000	15.999410
2706    Oh       1     MMT1      Oh    2706	-0.950000	15.999410
2707    Ob       1     MMT1      Ob    2707	-1.050000	15.999410
2708    Ob       1     MMT1      Ob    2708	-1.050000	15.999410
2709    Ob       1     MMT1      Ob    2709	-1.050000	15.999410
2710     H       1     MMT1       H    2710	0.425000	1.007940
2711   Mgo       1     MMT1     Mgo    2711	1.360000	24.305000
2712    Si       1     MMT1      Si    2712	2.100000	28.085380
2713    Si       1     MMT1      Si    2713	2.100000	28.085380
2714    Op       1     MMT1      Op    2714	-1.050000	15.999410
2715    Op       1     MMT1      Op    2715	-1.050000	15.999410
2716  Ohmg       1     MMT1    Ohmg    2716	-1.080833	15.999410
2717    Ob       1     MMT1      Ob    2717	-1.050000	15.999410
2718    Ob       1     MMT1      Ob    2718	-1.050000	15.999410
2719    Ob       1     MMT1      Ob    2719	-1.050000	15.999410
2720     H       1     MMT1       H    2720	0.425000	1.007940
2721    Al       1     MMT1      Al    2721	1.575000	26.981540
2722    Si       1     MMT1      Si    2722	2.100000	28.085380
2723    Si       1     MMT1      Si    2723	2.100000	28.085380
2724    Op       1     MMT1      Op    2724	-1.050000	15.999410
2725    Op       1     MMT1      Op    2725	-1.050000	15.999410
2726    Oh       1     MMT1      Oh    2726	-0.950000	15.999410
2727    Ob       1     MMT1      Ob    2727	-1.050000	15.999410
2728    Ob       1     MMT1      Ob    2728	-1.050000	15.999410
2729    Ob       1     MMT1      Ob    2729	-1.050000	15.999410
2730     H       1     MMT1       H    2730	0.425000	1.007940
2731    Al       1     MMT1      Al    2731	1.575000	26.981540
2732    Si       1     MMT1      Si    2732	2.100000	28.085380
2733    Si       1     MMT1      Si    2733	2.100000	28.085380
2734    Op       1     MMT1      Op    2734	-1.050000	15.999410
2735    Op       1     MMT1      Op    2735	-1.050000	15.999410
2736  Ohmg       1     MMT1    Ohmg    2736	-1.080833	15.999410
2737    Ob       1     MMT1      Ob    2737	-1.050000	15.999410
2738    Ob       1     MMT1      Ob    2738	-1.050000	15.999410
2739    Ob       1     MMT1      Ob    2739	-1.050000	15.999410
2740     H       1     MMT1       H    2740	0.425000	1.007940
2741    Al       1     MMT1      Al    2741	1.575000	26.981540
2742    Si       1     MMT1      Si    2742	2.100000	28.085380
2743    Si       1     MMT1      Si    2743	2.100000	28.085380
2744    Op       1     MMT1      Op    2744	-1.050000	15.999410
2745    Op       1     MMT1      Op    2745	-1.050000	15.999410
2746  Ohmg       1     MMT1    Ohmg    2746	-1.080833	15.999410
2747    Ob       1     MMT1      Ob    2747	-1.050000	15.999410
2748    Ob       1     MMT1      Ob    2748	-1.050000	15.999410
2749    Ob       1     MMT1      Ob    2749	-1.050000	15.999410
2750     H       1     MMT1       H    2750	0.425000	1.007940
2751    Al       1     MMT1      Al    2751	1.575000	26.981540
2752    Si       1     MMT1      Si    2752	2.100000	28.085380
2753    Si       1     MMT1      Si    2753	2.100000	28.085380
2754   Omg       1     MMT1     Omg    2754	-1.180833	15.999410
2755    Op       1     MMT1      Op    2755	-1.050000	15.999410
2756    Oh       1     MMT1      Oh    2756	-0.950000	15.999410
2757    Ob       1     MMT1      Ob    2757	-1.050000	15.999410
2758    Ob       1     MMT1      Ob    2758	-1.050000	15.999410
2759    Ob       1     MMT1      Ob    2759	-1.050000	15.999410
2760     H       1     MMT1       H    2760	0.425000	1.007940
2761   Mgo       1     MMT1     Mgo    2761	1.360000	24.305000
2762    Si       1     MMT1      Si    2762	2.100000	28.085380
2763    Si       1     MMT1      Si    2763	2.100000	28.085380
2764   Omg       1     MMT1     Omg    2764	-1.180833	15.999410
2765   Omg       1     MMT1     Omg    2765	-1.180833	15.999410
2766  Ohmg       1     MMT1    Ohmg    2766	-1.080833	15.999410
2767    Ob       1     MMT1      Ob    2767	-1.050000	15.999410
2768    Ob       1     MMT1      Ob    2768	-1.050000	15.999410
2769    Ob       1     MMT1      Ob    2769	-1.050000	15.999410
2770     H       1     MMT1       H    2770	0.425000	1.007940
2771   Mgo       1     MMT1     Mgo    2771	1.360000	24.305000
2772    Si       1     MMT1      Si    2772	2.100000	28.085380
2773    Si       1     MMT1      Si    2773	2.100000	28.085380
2774   Omg       1     MMT1     Omg    2774	-1.180833	15.999410
2775   Omg       1     MMT1     Omg    2775	-1.180833	15.999410
2776  Ohmg       1     MMT1    Ohmg    2776	-1.080833	15.999410
2777    Ob       1     MMT1      Ob    2777	-1.050000	15.999410
2778    Ob       1     MMT1      Ob    2778	-1.050000	15.999410
2779    Ob       1     MMT1      Ob    2779	-1.050000	15.999410
2780     H       1     MMT1       H    2780	0.425000	1.007940
2781    Al       1     MMT1      Al    2781	1.575000	26.981540
2782    Si       1     MMT1      Si    2782	2.100000	28.085380
2783    Si       1     MMT1      Si    2783	2.100000	28.085380
2784   Omg       1     MMT1     Omg    2784	-1.180833	15.999410
2785   Omg       1     MMT1     Omg    2785	-1.180833	15.999410
2786  Ohmg       1     MMT1    Ohmg    2786	-1.080833	15.999410
2787    Ob       1     MMT1      Ob    2787	-1.050000	15.999410
2788    Ob       1     MMT1      Ob    2788	-1.050000	15.999410
2789    Ob       1     MMT1      Ob    2789	-1.050000	15.999410
2790     H       1     MMT1       H    2790	0.425000	1.007940
2791    Al       1     MMT1      Al    2791	1.575000	26.981540
2792    Si       1     MMT1      Si    2792	2.100000	28.085380
2793    Si       1     MMT1      Si    2793	2.100000	28.085380
2794   Omg       1     MMT1     Omg    2794	-1.180833	15.999410
2795   Omg       1     MMT1     Omg    2795	-1.180833	15.999410
2796  Ohmg       1     MMT1    Ohmg    2796	-1.080833	15.999410
2797    Ob       1     MMT1      Ob    2797	-1.050000	15.999410
2798    Ob       1     MMT1      Ob    2798	-1.050000	15.999410
2799    Ob       1     MMT1      Ob    2799	-1.050000	15.999410
2800     H       1     MMT1       H    2800	0.425000	1.007940
2801   Mgo       1     MMT1     Mgo    2801	1.360000	24.305000
2802    Si       1     MMT1      Si    2802	2.100000	28.085380
2803    Si       1     MMT1      Si    2803	2.100000	28.085380
2804   Omg       1     MMT1     Omg    2804	-1.180833	15.999410
2805   Omg       1     MMT1     Omg    2805	-1.180833	15.999410
2806  Ohmg       1     MMT1    Ohmg    2806	-1.080833	15.999410
2807    Ob       1     MMT1      Ob    2807	-1.050000	15.999410
2808    Ob       1     MMT1      Ob    2808	-1.050000	15.999410
2809    Ob       1     MMT1      Ob    2809	-1.050000	15.999410
2810     H       1     MMT1       H    2810	0.425000	1.007940
2811   Mgo       1     MMT1     Mgo    2811	1.360000	24.305000
2812    Si       1     MMT1      Si    2812	2.100000	28.085380
2813    Si       1     MMT1      Si    2813	2.100000	28.085380
2814   Omg       1     MMT1     Omg    2814	-1.180833	15.999410
2815   Omg       1     MMT1     Omg    2815	-1.180833	15.999410
2816    Oh       1     MMT1      Oh    2816	-0.950000	15.999410
2817    Ob       1     MMT1      Ob    2817	-1.050000	15.999410
2818    Ob       1     MMT1      Ob    2818	-1.050000	15.999410
2819    Ob       1     MMT1      Ob    2819	-1.050000	15.999410
2820     H       1     MMT1       H    2820	0.425000	1.007940
2821    Al       1     MMT1      Al    2821	1.575000	26.981540
2822    Si       1     MMT1      Si    2822	2.100000	28.085380
2823    Si       1     MMT1      Si    2823	2.100000	28.085380
2824   Omg       1     MMT1     Omg    2824	-1.180833	15.999410
2825   Omg       1     MMT1     Omg    2825	-1.180833	15.999410
2826    Oh       1     MMT1      Oh    2826	-0.950000	15.999410
2827    Ob       1     MMT1      Ob    2827	-1.050000	15.999410
2828    Ob       1     MMT1      Ob    2828	-1.050000	15.999410
2829    Ob       1     MMT1      Ob    2829	-1.050000	15.999410
2830     H       1     MMT1       H    2830	0.425000	1.007940
2831    Al       1     MMT1      Al    2831	1.575000	26.981540
2832    Si       1     MMT1      Si    2832	2.100000	28.085380
2833    Si       1     MMT1      Si    2833	2.100000	28.085380
2834    Op       1     MMT1      Op    2834	-1.050000	15.999410
2835   Omg       1     MMT1     Omg    2835	-1.180833	15.999410
2836  Ohmg       1     MMT1    Ohmg    2836	-1.080833	15.999410
2837    Ob       1     MMT1      Ob    2837	-1.050000	15.999410
2838    Ob       1     MMT1      Ob    2838	-1.050000	15.999410
2839    Ob       1     MMT1      Ob    2839	-1.050000	15.999410
2840     H       1     MMT1       H    2840	0.425000	1.007940
2841    Al       1     MMT1      Al    2841	1.575000	26.981540
2842    Si       1     MMT1      Si    2842	2.100000	28.085380
2843    Si       1     MMT1      Si    2843	2.100000	28.085380
2844   Omg       1     MMT1     Omg    2844	-1.180833	15.999410
2845   Omg       1     MMT1     Omg    2845	-1.180833	15.999410
2846    Oh       1     MMT1      Oh    2846	-0.950000	15.999410
2847    Ob       1     MMT1      Ob    2847	-1.050000	15.999410
2848    Ob       1     MMT1      Ob    2848	-1.050000	15.999410
2849    Ob       1     MMT1      Ob    2849	-1.050000	15.999410
2850     H       1     MMT1       H    2850	0.425000	1.007940
2851    Al       1     MMT1      Al    2851	1.575000	26.981540
2852    Si       1     MMT1      Si    2852	2.100000	28.085380
2853    Si       1     MMT1      Si    2853	2.100000	28.085380
2854    Op       1     MMT1      Op    2854	-1.050000	15.999410
2855    Op       1     MMT1      Op    2855	-1.050000	15.999410
2856    Oh       1     MMT1      Oh    2856	-0.950000	15.999410
2857    Ob       1     MMT1      Ob    2857	-1.050000	15.999410
2858    Ob       1     MMT1      Ob    2858	-1.050000	15.999410
2859    Ob       1     MMT1      Ob    2859	-1.050000	15.999410
2860     H       1     MMT1       H    2860	0.425000	1.007940
2861    Al       1     MMT1      Al    2861	1.575000	26.981540
2862    Si       1     MMT1      Si    2862	2.100000	28.085380
2863    Si       1     MMT1      Si    2863	2.100000	28.085380
2864   Omg       1     MMT1     Omg    2864	-1.180833	15.999410
2865    Op       1     MMT1      Op    2865	-1.050000	15.999410
2866    Oh       1     MMT1      Oh    2866	-0.950000	15.999410
2867    Ob       1     MMT1      Ob    2867	-1.050000	15.999410
2868    Ob       1     MMT1      Ob    2868	-1.050000	15.999410
2869    Ob       1     MMT1      Ob    2869	-1.050000	15.999410
2870     H       1     MMT1       H    2870	0.425000	1.007940
2871    Al       1     MMT1      Al    2871	1.575000	26.981540
2872    Si       1     MMT1      Si    2872	2.100000	28.085380
2873    Si       1     MMT1      Si    2873	2.100000	28.085380
2874   Omg       1     MMT1     Omg    2874	-1.180833	15.999410
2875   Omg       1     MMT1     Omg    2875	-1.180833	15.999410
2876    Oh       1     MMT1      Oh    2876	-0.950000	15.999410
2877    Ob       1     MMT1      Ob    2877	-1.050000	15.999410
2878    Ob       1     MMT1      Ob    2878	-1.050000	15.999410
2879    Ob       1     MMT1      Ob    2879	-1.050000	15.999410
2880     H       1     MMT1       H    2880	0.425000	1.007940
2881    Al       1     MMT1      Al    2881	1.575000	26.981540
2882    Si       1     MMT1      Si    2882	2.100000	28.085380
2883    Si       1     MMT1      Si    2883	2.100000	28.085380
2884    Op       1     MMT1      Op    2884	-1.050000	15.999410
2885   Omg       1     MMT1     Omg    2885	-1.180833	15.999410
2886    Oh       1     MMT1      Oh    2886	-0.950000	15.999410
2887    Ob       1     MMT1      Ob    2887	-1.050000	15.999410
2888    Ob       1     MMT1      Ob    2888	-1.050000	15.999410
2889    Ob       1     MMT1      Ob    2889	-1.050000	15.999410
2890     H       1     MMT1       H    2890	0.425000	1.007940
2891   Mgo       1     MMT1     Mgo    2891	1.360000	24.305000
2892    Si       1     MMT1      Si    2892	2.100000	28.085380
2893    Si       1     MMT1      Si    2893	2.100000	28.085380
2894   Omg       1     MMT1     Omg    2894	-1.180833	15.999410
2895   Omg       1     MMT1     Omg    2895	-1.180833	15.999410
2896    Oh       1     MMT1      Oh    2896	-0.950000	15.999410
2897    Ob       1     MMT1      Ob    2897	-1.050000	15.999410
2898    Ob       1     MMT1      Ob    2898	-1.050000	15.999410
2899    Ob       1     MMT1      Ob    2899	-1.050000	15.999410
2900     H       1     MMT1       H    2900	0.425000	1.007940
2901    Al       1     MMT1      Al    2901	1.575000	26.981540
2902    Si       1     MMT1      Si    2902	2.100000	28.085380
2903    Si       1     MMT1      Si    2903	2.100000	28.085380
2904    Op       1     MMT1      Op    2904	-1.050000	15.999410
2905   Omg       1     MMT1     Omg    2905	-1.180833	15.999410
2906    Oh       1     MMT1      Oh    2906	-0.950000	15.999410
2907    Ob       1     MMT1      Ob    2907	-1.050000	15.999410
2908    Ob       1     MMT1      Ob    2908	-1.050000	15.999410
2909    Ob       1     MMT1      Ob    2909	-1.050000	15.999410
2910     H       1     MMT1       H    2910	0.425000	1.007940
2911    Al       1     MMT1      Al    2911	1.575000	26.981540
2912    Si       1     MMT1      Si    2912	2.100000	28.085380
2913    Si       1     MMT1      Si    2913	2.100000	28.085380
2914   Omg       1     MMT1     Omg    2914	-1.180833	15.999410
2915   Omg       1     MMT1     Omg    2915	-1.180833	15.999410
2916    Oh       1     MMT1      Oh    2916	-0.950000	15.999410
2917    Ob       1     MMT1      Ob    2917	-1.050000	15.999410
2918    Ob       1     MMT1      Ob    2918	-1.050000	15.999410
2919    Ob       1     MMT1      Ob    2919	-1.050000	15.999410
2920     H       1     MMT1       H    2920	0.425000	1.007940
2921    Al       1     MMT1      Al    2921	1.575000	26.981540
2922    Si       1     MMT1      Si    2922	2.100000	28.085380
2923    Si       1     MMT1      Si    2923	2.100000	28.085380
2924    Op       1     MMT1      Op    2924	-1.050000	15.999410
2925    Op       1     MMT1      Op    2925	-1.050000	15.999410
2926  Ohmg       1     MMT1    Ohmg    2926	-1.080833	15.999410
2927    Ob       1     MMT1      Ob    2927	-1.050000	15.999410
2928    Ob       1     MMT1      Ob    2928	-1.050000	15.999410
2929    Ob       1     MMT1      Ob    2929	-1.050000	15.999410
2930     H       1     MMT1       H    2930	0.425000	1.007940
2931    Al       1     MMT1      Al    2931	1.575000	26.981540
2932    Si       1     MMT1      Si    2932	2.100000	28.085380
2933    Si       1     MMT1      Si    2933	2.100000	28.085380
2934   Omg       1     MMT1     Omg    2934	-1.180833	15.999410
2935   Omg       1     MMT1     Omg    2935	-1.180833	15.999410
2936  Ohmg       1     MMT1    Ohmg    2936	-1.080833	15.999410
2937    Ob       1     MMT1      Ob    2937	-1.050000	15.999410
2938    Ob       1     MMT1      Ob    2938	-1.050000	15.999410
2939    Ob       1     MMT1      Ob    2939	-1.050000	15.999410
2940     H       1     MMT1       H    2940	0.425000	1.007940
2941   Mgo       1     MMT1     Mgo    2941	1.360000	24.305000
2942    Si       1     MMT1      Si    2942	2.100000	28.085380
2943    Si       1     MMT1      Si    2943	2.100000	28.085380
2944    Op       1     MMT1      Op    2944	-1.050000	15.999410
2945   Omg       1     MMT1     Omg    2945	-1.180833	15.999410
2946  Ohmg       1     MMT1    Ohmg    2946	-1.080833	15.999410
2947    Ob       1     MMT1      Ob    2947	-1.050000	15.999410
2948    Ob       1     MMT1      Ob    2948	-1.050000	15.999410
2949    Ob       1     MMT1      Ob    2949	-1.050000	15.999410
2950     H       1     MMT1       H    2950	0.425000	1.007940
2951   Mgo       1     MMT1     Mgo    2951	1.360000	24.305000
2952    Si       1     MMT1      Si    2952	2.100000	28.085380
2953    Si       1     MMT1      Si    2953	2.100000	28.085380
2954    Op       1     MMT1      Op    2954	-1.050000	15.999410
2955    Op       1     MMT1      Op    2955	-1.050000	15.999410
2956  Ohmg       1     MMT1    Ohmg    2956	-1.080833	15.999410
2957    Ob       1     MMT1      Ob    2957	-1.050000	15.999410
2958    Ob       1     MMT1      Ob    2958	-1.050000	15.999410
2959    Ob       1     MMT1      Ob    2959	-1.050000	15.999410
2960     H       1     MMT1       H    2960	0.425000	1.007940
2961    Al       1     MMT1      Al    2961	1.575000	26.981540
2962    Si       1     MMT1      Si    2962	2.100000	28.085380
2963    Si       1     MMT1      Si    2963	2.100000	28.085380
2964    Op       1     MMT1      Op    2964	-1.050000	15.999410
2965    Op       1     MMT1      Op    2965	-1.050000	15.999410
2966    Oh       1     MMT1      Oh    2966	-0.950000	15.999410
2967    Ob       1     MMT1      Ob    2967	-1.050000	15.999410
2968    Ob       1     MMT1      Ob    2968	-1.050000	15.999410
2969    Ob       1     MMT1      Ob    2969	-1.050000	15.999410
2970     H       1     MMT1       H    2970	0.425000	1.007940
2971    Al       1     MMT1      Al    2971	1.575000	26.981540
2972    Si       1     MMT1      Si    2972	2.100000	28.085380
2973    Si       1     MMT1      Si    2973	2.100000	28.085380
2974    Op       1     MMT1      Op    2974	-1.050000	15.999410
2975    Op       1     MMT1      Op    2975	-1.050000	15.999410
2976  Ohmg       1     MMT1    Ohmg    2976	-1.080833	15.999410
2977    Ob       1     MMT1      Ob    2977	-1.050000	15.999410
2978    Ob       1     MMT1      Ob    2978	-1.050000	15.999410
2979    Ob       1     MMT1      Ob    2979	-1.050000	15.999410
2980     H       1     MMT1       H    2980	0.425000	1.007940
2981    Al       1     MMT1      Al    2981	1.575000	26.981540
2982    Si       1     MMT1      Si    2982	2.100000	28.085380
2983    Si       1     MMT1      Si    2983	2.100000	28.085380
2984    Op       1     MMT1      Op    2984	-1.050000	15.999410
2985    Op       1     MMT1      Op    2985	-1.050000	15.999410
2986  Ohmg       1     MMT1    Ohmg    2986	-1.080833	15.999410
2987    Ob       1     MMT1      Ob    2987	-1.050000	15.999410
2988    Ob       1     MMT1      Ob    2988	-1.050000	15.999410
2989    Ob       1     MMT1      Ob    2989	-1.050000	15.999410
2990     H       1     MMT1       H    2990	0.425000	1.007940
2991    Al       1     MMT1      Al    2991	1.575000	26.981540
2992    Si       1     MMT1      Si    2992	2.100000	28.085380
2993    Si       1     MMT1      Si    2993	2.100000	28.085380
2994   Omg       1     MMT1     Omg    2994	-1.180833	15.999410
2995    Op       1     MMT1      Op    2995	-1.050000	15.999410
2996    Oh       1     MMT1      Oh    2996	-0.950000	15.999410
2997    Ob       1     MMT1      Ob    2997	-1.050000	15.999410
2998    Ob       1     MMT1      Ob    2998	-1.050000	15.999410
2999    Ob       1     MMT1      Ob    2999	-1.050000	15.999410
3000     H       1     MMT1       H    3000	0.425000	1.007940
3001    Al       1     MMT1      Al    3001	1.575000	26.981540
3002    Si       1     MMT1      Si    3002	2.100000	28.085380
3003    Si       1     MMT1      Si    3003	2.100000	28.085380
3004   Omg       1     MMT1     Omg    3004	-1.180833	15.999410
3005    Op       1     MMT1      Op    3005	-1.050000	15.999410
3006    Oh       1     MMT1      Oh    3006	-0.950000	15.999410
3007    Ob       1     MMT1      Ob    3007	-1.050000	15.999410
3008    Ob       1     MMT1      Ob    3008	-1.050000	15.999410
3009    Ob       1     MMT1      Ob    3009	-1.050000	15.999410
3010     H       1     MMT1       H    3010	0.425000	1.007940
3011   Mgo       1     MMT1     Mgo    3011	1.360000	24.305000
3012    Si       1     MMT1      Si    3012	2.100000	28.085380
3013    Si       1     MMT1      Si    3013	2.100000	28.085380
3014   Omg       1     MMT1     Omg    3014	-1.180833	15.999410
3015   Omg       1     MMT1     Omg    3015	-1.180833	15.999410
3016  Ohmg       1     MMT1    Ohmg    3016	-1.080833	15.999410
3017    Ob       1     MMT1      Ob    3017	-1.050000	15.999410
3018    Ob       1     MMT1      Ob    3018	-1.050000	15.999410
3019    Ob       1     MMT1      Ob    3019	-1.050000	15.999410
3020     H       1     MMT1       H    3020	0.425000	1.007940
3021    Al       1     MMT1      Al    3021	1.575000	26.981540
3022    Si       1     MMT1      Si    3022	2.100000	28.085380
3023    Si       1     MMT1      Si    3023	2.100000	28.085380
3024   Omg       1     MMT1     Omg    3024	-1.180833	15.999410
3025   Omg       1     MMT1     Omg    3025	-1.180833	15.999410
3026  Ohmg       1     MMT1    Ohmg    3026	-1.080833	15.999410
3027    Ob       1     MMT1      Ob    3027	-1.050000	15.999410
3028    Ob       1     MMT1      Ob    3028	-1.050000	15.999410
3029    Ob       1     MMT1      Ob    3029	-1.050000	15.999410
3030     H       1     MMT1       H    3030	0.425000	1.007940
3031    Al       1     MMT1      Al    3031	1.575000	26.981540
3032    Si       1     MMT1      Si    3032	2.100000	28.085380
3033    Si       1     MMT1      Si    3033	2.100000	28.085380
3034   Omg       1     MMT1     Omg    3034	-1.180833	15.999410
3035    Op       1     MMT1      Op    3035	-1.050000	15.999410
3036    Oh       1     MMT1      Oh    3036	-0.950000	15.999410
3037    Ob       1     MMT1      Ob    3037	-1.050000	15.999410
3038    Ob       1     MMT1      Ob    3038	-1.050000	15.999410
3039    Ob       1     MMT1      Ob    3039	-1.050000	15.999410
3040     H       1     MMT1       H    3040	0.425000	1.007940
3041    Al       1     MMT1      Al    3041	1.575000	26.981540
3042    Si       1     MMT1      Si    3042	2.100000	28.085380
3043    Si       1     MMT1      Si    3043	2.100000	28.085380
3044   Omg       1     MMT1     Omg    3044	-1.180833	15.999410
3045   Omg       1     MMT1     Omg    3045	-1.180833	15.999410
3046    Oh       1     MMT1      Oh    3046	-0.950000	15.999410
3047    Ob       1     MMT1      Ob    3047	-1.050000	15.999410
3048    Ob       1     MMT1      Ob    3048	-1.050000	15.999410
3049    Ob       1     MMT1      Ob    3049	-1.050000	15.999410
3050     H       1     MMT1       H    3050	0.425000	1.007940
3051   Mgo       1     MMT1     Mgo    3051	1.360000	24.305000
3052    Si       1     MMT1      Si    3052	2.100000	28.085380
3053    Si       1     MMT1      Si    3053	2.100000	28.085380
3054   Omg       1     MMT1     Omg    3054	-1.180833	15.999410
3055   Omg       1     MMT1     Omg    3055	-1.180833	15.999410
3056    Oh       1     MMT1      Oh    3056	-0.950000	15.999410
3057    Ob       1     MMT1      Ob    3057	-1.050000	15.999410
3058    Ob       1     MMT1      Ob    3058	-1.050000	15.999410
3059    Ob       1     MMT1      Ob    3059	-1.050000	15.999410
3060     H       1     MMT1       H    3060	0.425000	1.007940
3061    Al       1     MMT1      Al    3061	1.575000	26.981540
3062    Si       1     MMT1      Si    3062	2.100000	28.085380
3063    Si       1     MMT1      Si    3063	2.100000	28.085380
3064   Omg       1     MMT1     Omg    3064	-1.180833	15.999410
3065   Omg       1     MMT1     Omg    3065	-1.180833	15.999410
3066    Oh       1     MMT1      Oh    3066	-0.950000	15.999410
3067    Ob       1     MMT1      Ob    3067	-1.050000	15.999410
3068    Ob       1     MMT1      Ob    3068	-1.050000	15.999410
3069    Ob       1     MMT1      Ob    3069	-1.050000	15.999410
3070     H       1     MMT1       H    3070	0.425000	1.007940
3071    Al       1     MMT1      Al    3071	1.575000	26.981540
3072    Si       1     MMT1      Si    3072	2.100000	28.085380
3073    Si       1     MMT1      Si    3073	2.100000	28.085380
3074   Omg       1     MMT1     Omg    3074	-1.180833	15.999410
3075   Omg       1     MMT1     Omg    3075	-1.180833	15.999410
3076    Oh       1     MMT1      Oh    3076	-0.950000	15.999410
3077    Ob       1     MMT1      Ob    3077	-1.050000	15.999410
3078    Ob       1     MMT1      Ob    3078	-1.050000	15.999410
3079    Ob       1     MMT1      Ob    3079	-1.050000	15.999410
3080     H       1     MMT1       H    3080	0.425000	1.007940
3081    Al       1     MMT1      Al    3081	1.575000	26.981540
3082    Si       1     MMT1      Si    3082	2.100000	28.085380
3083    Si       1     MMT1      Si    3083	2.100000	28.085380
3084    Op       1     MMT1      Op    3084	-1.050000	15.999410
3085    Op       1     MMT1      Op    3085	-1.050000	15.999410
3086  Ohmg       1     MMT1    Ohmg    3086	-1.080833	15.999410
3087    Ob       1     MMT1      Ob    3087	-1.050000	15.999410
3088    Ob       1     MMT1      Ob    3088	-1.050000	15.999410
3089    Ob       1     MMT1      Ob    3089	-1.050000	15.999410
3090     H       1     MMT1       H    3090	0.425000	1.007940
3091    Al       1     MMT1      Al    3091	1.575000	26.981540
3092    Si       1     MMT1      Si    3092	2.100000	28.085380
3093    Si       1     MMT1      Si    3093	2.100000	28.085380
3094   Omg       1     MMT1     Omg    3094	-1.180833	15.999410
3095   Omg       1     MMT1     Omg    3095	-1.180833	15.999410
3096  Ohmg       1     MMT1    Ohmg    3096	-1.080833	15.999410
3097    Ob       1     MMT1      Ob    3097	-1.050000	15.999410
3098    Ob       1     MMT1      Ob    3098	-1.050000	15.999410
3099    Ob       1     MMT1      Ob    3099	-1.050000	15.999410
3100     H       1     MMT1       H    3100	0.425000	1.007940
3101   Mgo       1     MMT1     Mgo    3101	1.360000	24.305000
3102    Si       1     MMT1      Si    3102	2.100000	28.085380
3103    Si       1     MMT1      Si    3103	2.100000	28.085380
3104    Op       1     MMT1      Op    3104	-1.050000	15.999410
3105   Omg       1     MMT1     Omg    3105	-1.180833	15.999410
3106  Ohmg       1     MMT1    Ohmg    3106	-1.080833	15.999410
3107    Ob       1     MMT1      Ob    3107	-1.050000	15.999410
3108    Ob       1     MMT1      Ob    3108	-1.050000	15.999410
3109    Ob       1     MMT1      Ob    3109	-1.050000	15.999410
3110     H       1     MMT1       H    3110	0.425000	1.007940
3111   Mgo       1     MMT1     Mgo    3111	1.360000	24.305000
3112    Si       1     MMT1      Si    3112	2.100000	28.085380
3113    Si       1     MMT1      Si    3113	2.100000	28.085380
3114    Op       1     MMT1      Op    3114	-1.050000	15.999410
3115    Op       1     MMT1      Op    3115	-1.050000	15.999410
3116  Ohmg       1     MMT1    Ohmg    3116	-1.080833	15.999410
3117    Ob       1     MMT1      Ob    3117	-1.050000	15.999410
3118    Ob       1     MMT1      Ob    3118	-1.050000	15.999410
3119    Ob       1     MMT1      Ob    3119	-1.050000	15.999410
3120     H       1     MMT1       H    3120	0.425000	1.007940
3121    Al       1     MMT1      Al    3121	1.575000	26.981540
3122    Si       1     MMT1      Si    3122	2.100000	28.085380
3123    Si       1     MMT1      Si    3123	2.100000	28.085380
3124    Op       1     MMT1      Op    3124	-1.050000	15.999410
3125    Op       1     MMT1      Op    3125	-1.050000	15.999410
3126    Oh       1     MMT1      Oh    3126	-0.950000	15.999410
3127    Ob       1     MMT1      Ob    3127	-1.050000	15.999410
3128    Ob       1     MMT1      Ob    3128	-1.050000	15.999410
3129    Ob       1     MMT1      Ob    3129	-1.050000	15.999410
3130     H       1     MMT1       H    3130	0.425000	1.007940
3131    Al       1     MMT1      Al    3131	1.575000	26.981540
3132    Si       1     MMT1      Si    3132	2.100000	28.085380
3133    Si       1     MMT1      Si    3133	2.100000	28.085380
3134    Op       1     MMT1      Op    3134	-1.050000	15.999410
3135   Omg       1     MMT1     Omg    3135	-1.180833	15.999410
3136  Ohmg       1     MMT1    Ohmg    3136	-1.080833	15.999410
3137    Ob       1     MMT1      Ob    3137	-1.050000	15.999410
3138    Ob       1     MMT1      Ob    3138	-1.050000	15.999410
3139    Ob       1     MMT1      Ob    3139	-1.050000	15.999410
3140     H       1     MMT1       H    3140	0.425000	1.007940
3141   Mgo       1     MMT1     Mgo    3141	1.360000	24.305000
3142    Si       1     MMT1      Si    3142	2.100000	28.085380
3143    Si       1     MMT1      Si    3143	2.100000	28.085380
3144    Op       1     MMT1      Op    3144	-1.050000	15.999410
3145   Omg       1     MMT1     Omg    3145	-1.180833	15.999410
3146  Ohmg       1     MMT1    Ohmg    3146	-1.080833	15.999410
3147    Ob       1     MMT1      Ob    3147	-1.050000	15.999410
3148    Ob       1     MMT1      Ob    3148	-1.050000	15.999410
3149    Ob       1     MMT1      Ob    3149	-1.050000	15.999410
3150     H       1     MMT1       H    3150	0.425000	1.007940
3151    Al       1     MMT1      Al    3151	1.575000	26.981540
3152    Si       1     MMT1      Si    3152	2.100000	28.085380
3153    Si       1     MMT1      Si    3153	2.100000	28.085380
3154    Op       1     MMT1      Op    3154	-1.050000	15.999410
3155    Op       1     MMT1      Op    3155	-1.050000	15.999410
3156    Oh       1     MMT1      Oh    3156	-0.950000	15.999410
3157    Ob       1     MMT1      Ob    3157	-1.050000	15.999410
3158    Ob       1     MMT1      Ob    3158	-1.050000	15.999410
3159    Ob       1     MMT1      Ob    3159	-1.050000	15.999410
3160     H       1     MMT1       H    3160	0.425000	1.007940
3161    Al       1     MMT1      Al    3161	1.575000	26.981540
3162    Si       1     MMT1      Si    3162	2.100000	28.085380
3163    Si       1     MMT1      Si    3163	2.100000	28.085380
3164    Op       1     MMT1      Op    3164	-1.050000	15.999410
3165    Op       1     MMT1      Op    3165	-1.050000	15.999410
3166    Oh       1     MMT1      Oh    3166	-0.950000	15.999410
3167    Ob       1     MMT1      Ob    3167	-1.050000	15.999410
3168    Ob       1     MMT1      Ob    3168	-1.050000	15.999410
3169    Ob       1     MMT1      Ob    3169	-1.050000	15.999410
3170     H       1     MMT1       H    3170	0.425000	1.007940
3171    Al       1     MMT1      Al    3171	1.575000	26.981540
3172    Si       1     MMT1      Si    3172	2.100000	28.085380
3173    Si       1     MMT1      Si    3173	2.100000	28.085380
3174    Op       1     MMT1      Op    3174	-1.050000	15.999410
3175    Op       1     MMT1      Op    3175	-1.050000	15.999410
3176    Oh       1     MMT1      Oh    3176	-0.950000	15.999410
3177    Ob       1     MMT1      Ob    3177	-1.050000	15.999410
3178    Ob       1     MMT1      Ob    3178	-1.050000	15.999410
3179    Ob       1     MMT1      Ob    3179	-1.050000	15.999410
3180     H       1     MMT1       H    3180	0.425000	1.007940
3181    Al       1     MMT1      Al    3181	1.575000	26.981540
3182    Si       1     MMT1      Si    3182	2.100000	28.085380
3183    Si       1     MMT1      Si    3183	2.100000	28.085380
3184    Op       1     MMT1      Op    3184	-1.050000	15.999410
3185    Op       1     MMT1      Op    3185	-1.050000	15.999410
3186    Oh       1     MMT1      Oh    3186	-0.950000	15.999410
3187    Ob       1     MMT1      Ob    3187	-1.050000	15.999410
3188    Ob       1     MMT1      Ob    3188	-1.050000	15.999410
3189    Ob       1     MMT1      Ob    3189	-1.050000	15.999410
3190     H       1     MMT1       H    3190	0.425000	1.007940
3191    Al       1     MMT1      Al    3191	1.575000	26.981540
3192    Si       1     MMT1      Si    3192	2.100000	28.085380
3193    Si       1     MMT1      Si    3193	2.100000	28.085380
3194    Op       1     MMT1      Op    3194	-1.050000	15.999410
3195    Op       1     MMT1      Op    3195	-1.050000	15.999410
3196    Oh       1     MMT1      Oh    3196	-0.950000	15.999410
3197    Ob       1     MMT1      Ob    3197	-1.050000	15.999410
3198    Ob       1     MMT1      Ob    3198	-1.050000	15.999410
3199    Ob       1     MMT1      Ob    3199	-1.050000	15.999410
3200     H       1     MMT1       H    3200	0.425000	1.007940
3201   Mgo       1     MMT1     Mgo    3201	1.360000	24.305000
3202    Si       1     MMT1      Si    3202	2.100000	28.085380
3203    Si       1     MMT1      Si    3203	2.100000	28.085380
3204   Omg       1     MMT1     Omg    3204	-1.180833	15.999410
3205   Omg       1     MMT1     Omg    3205	-1.180833	15.999410
3206  Ohmg       1     MMT1    Ohmg    3206	-1.080833	15.999410
3207    Ob       1     MMT1      Ob    3207	-1.050000	15.999410
3208    Ob       1     MMT1      Ob    3208	-1.050000	15.999410
3209    Ob       1     MMT1      Ob    3209	-1.050000	15.999410
3210     H       1     MMT1       H    3210	0.425000	1.007940
3211    Al       1     MMT1      Al    3211	1.575000	26.981540
3212    Si       1     MMT1      Si    3212	2.100000	28.085380
3213    Si       1     MMT1      Si    3213	2.100000	28.085380
3214    Op       1     MMT1      Op    3214	-1.050000	15.999410
3215    Op       1     MMT1      Op    3215	-1.050000	15.999410
3216    Oh       1     MMT1      Oh    3216	-0.950000	15.999410
3217    Ob       1     MMT1      Ob    3217	-1.050000	15.999410
3218    Ob       1     MMT1      Ob    3218	-1.050000	15.999410
3219    Ob       1     MMT1      Ob    3219	-1.050000	15.999410
3220     H       1     MMT1       H    3220	0.425000	1.007940
3221    Al       1     MMT1      Al    3221	1.575000	26.981540
3222    Si       1     MMT1      Si    3222	2.100000	28.085380
3223    Si       1     MMT1      Si    3223	2.100000	28.085380
3224   Omg       1     MMT1     Omg    3224	-1.180833	15.999410
3225    Op       1     MMT1      Op    3225	-1.050000	15.999410
3226    Oh       1     MMT1      Oh    3226	-0.950000	15.999410
3227    Ob       1     MMT1      Ob    3227	-1.050000	15.999410
3228    Ob       1     MMT1      Ob    3228	-1.050000	15.999410
3229    Ob       1     MMT1      Ob    3229	-1.050000	15.999410
3230     H       1     MMT1       H    3230	0.425000	1.007940
3231    Al       1     MMT1      Al    3231	1.575000	26.981540
3232    Si       1     MMT1      Si    3232	2.100000	28.085380
3233    Si       1     MMT1      Si    3233	2.100000	28.085380
3234    Op       1     MMT1      Op    3234	-1.050000	15.999410
3235   Omg       1     MMT1     Omg    3235	-1.180833	15.999410
3236  Ohmg       1     MMT1    Ohmg    3236	-1.080833	15.999410
3237    Ob       1     MMT1      Ob    3237	-1.050000	15.999410
3238    Ob       1     MMT1      Ob    3238	-1.050000	15.999410
3239    Ob       1     MMT1      Ob    3239	-1.050000	15.999410
3240     H       1     MMT1       H    3240	0.425000	1.007940
3241    Al       1     MMT1      Al    3241	1.575000	26.981540
3242    Si       1     MMT1      Si    3242	2.100000	28.085380
3243    Si       1     MMT1      Si    3243	2.100000	28.085380
3244    Op       1     MMT1      Op    3244	-1.050000	15.999410
3245   Omg       1     MMT1     Omg    3245	-1.180833	15.999410
3246    Oh       1     MMT1      Oh    3246	-0.950000	15.999410
3247    Ob       1     MMT1      Ob    3247	-1.050000	15.999410
3248    Ob       1     MMT1      Ob    3248	-1.050000	15.999410
3249    Ob       1     MMT1      Ob    3249	-1.050000	15.999410
3250     H       1     MMT1       H    3250	0.425000	1.007940
3251    Al       1     MMT1      Al    3251	1.575000	26.981540
3252    Si       1     MMT1      Si    3252	2.100000	28.085380
3253    Si       1     MMT1      Si    3253	2.100000	28.085380
3254    Op       1     MMT1      Op    3254	-1.050000	15.999410
3255   Omg       1     MMT1     Omg    3255	-1.180833	15.999410
3256  Ohmg       1     MMT1    Ohmg    3256	-1.080833	15.999410
3257    Ob       1     MMT1      Ob    3257	-1.050000	15.999410
3258    Ob       1     MMT1      Ob    3258	-1.050000	15.999410
3259    Ob       1     MMT1      Ob    3259	-1.050000	15.999410
3260     H       1     MMT1       H    3260	0.425000	1.007940
3261   Mgo       1     MMT1     Mgo    3261	1.360000	24.305000
3262    Si       1     MMT1      Si    3262	2.100000	28.085380
3263    Si       1     MMT1      Si    3263	2.100000	28.085380
3264    Op       1     MMT1      Op    3264	-1.050000	15.999410
3265   Omg       1     MMT1     Omg    3265	-1.180833	15.999410
3266  Ohmg       1     MMT1    Ohmg    3266	-1.080833	15.999410
3267    Ob       1     MMT1      Ob    3267	-1.050000	15.999410
3268    Ob       1     MMT1      Ob    3268	-1.050000	15.999410
3269    Ob       1     MMT1      Ob    3269	-1.050000	15.999410
3270     H       1     MMT1       H    3270	0.425000	1.007940
3271    Al       1     MMT1      Al    3271	1.575000	26.981540
3272    Si       1     MMT1      Si    3272	2.100000	28.085380
3273    Si       1     MMT1      Si    3273	2.100000	28.085380
3274   Omg       1     MMT1     Omg    3274	-1.180833	15.999410
3275   Omg       1     MMT1     Omg    3275	-1.180833	15.999410
3276    Oh       1     MMT1      Oh    3276	-0.950000	15.999410
3277    Ob       1     MMT1      Ob    3277	-1.050000	15.999410
3278    Ob       1     MMT1      Ob    3278	-1.050000	15.999410
3279    Ob       1     MMT1      Ob    3279	-1.050000	15.999410
3280     H       1     MMT1       H    3280	0.425000	1.007940
3281    Al       1     MMT1      Al    3281	1.575000	26.981540
3282    Si       1     MMT1      Si    3282	2.100000	28.085380
3283    Si       1     MMT1      Si    3283	2.100000	28.085380
3284    Op       1     MMT1      Op    3284	-1.050000	15.999410
3285   Omg       1     MMT1     Omg    3285	-1.180833	15.999410
3286  Ohmg       1     MMT1    Ohmg    3286	-1.080833	15.999410
3287    Ob       1     MMT1      Ob    3287	-1.050000	15.999410
3288    Ob       1     MMT1      Ob    3288	-1.050000	15.999410
3289    Ob       1     MMT1      Ob    3289	-1.050000	15.999410
3290     H       1     MMT1       H    3290	0.425000	1.007940
3291    Al       1     MMT1      Al    3291	1.575000	26.981540
3292    Si       1     MMT1      Si    3292	2.100000	28.085380
3293    Si       1     MMT1      Si    3293	2.100000	28.085380
3294   Omg       1     MMT1     Omg    3294	-1.180833	15.999410
3295    Op       1     MMT1      Op    3295	-1.050000	15.999410
3296    Oh       1     MMT1      Oh    3296	-0.950000	15.999410
3297    Ob       1     MMT1      Ob    3297	-1.050000	15.999410
3298    Ob       1     MMT1      Ob    3298	-1.050000	15.999410
3299    Ob       1     MMT1      Ob    3299	-1.050000	15.999410
3300     H       1     MMT1       H    3300	0.425000	1.007940
3301    Al       1     MMT1      Al    3301	1.575000	26.981540
3302    Si       1     MMT1      Si    3302	2.100000	28.085380
3303    Si       1     MMT1      Si    3303	2.100000	28.085380
3304    Op       1     MMT1      Op    3304	-1.050000	15.999410
3305    Op       1     MMT1      Op    3305	-1.050000	15.999410
3306    Oh       1     MMT1      Oh    3306	-0.950000	15.999410
3307    Ob       1     MMT1      Ob    3307	-1.050000	15.999410
3308    Ob       1     MMT1      Ob    3308	-1.050000	15.999410
3309    Ob       1     MMT1      Ob    3309	-1.050000	15.999410
3310     H       1     MMT1       H    3310	0.425000	1.007940
3311   Mgo       1     MMT1     Mgo    3311	1.360000	24.305000
3312    Si       1     MMT1      Si    3312	2.100000	28.085380
3313    Si       1     MMT1      Si    3313	2.100000	28.085380
3314   Omg       1     MMT1     Omg    3314	-1.180833	15.999410
3315   Omg       1     MMT1     Omg    3315	-1.180833	15.999410
3316  Ohmg       1     MMT1    Ohmg    3316	-1.080833	15.999410
3317    Ob       1     MMT1      Ob    3317	-1.050000	15.999410
3318    Ob       1     MMT1      Ob    3318	-1.050000	15.999410
3319    Ob       1     MMT1      Ob    3319	-1.050000	15.999410
3320     H       1     MMT1       H    3320	0.425000	1.007940
3321    Al       1     MMT1      Al    3321	1.575000	26.981540
3322    Si       1     MMT1      Si    3322	2.100000	28.085380
3323    Si       1     MMT1      Si    3323	2.100000	28.085380
3324    Op       1     MMT1      Op    3324	-1.050000	15.999410
3325    Op       1     MMT1      Op    3325	-1.050000	15.999410
3326  Ohmg       1     MMT1    Ohmg    3326	-1.080833	15.999410
3327    Ob       1     MMT1      Ob    3327	-1.050000	15.999410
3328    Ob       1     MMT1      Ob    3328	-1.050000	15.999410
3329    Ob       1     MMT1      Ob    3329	-1.050000	15.999410
3330     H       1     MMT1       H    3330	0.425000	1.007940
3331    Al       1     MMT1      Al    3331	1.575000	26.981540
3332    Si       1     MMT1      Si    3332	2.100000	28.085380
3333    Si       1     MMT1      Si    3333	2.100000	28.085380
3334   Omg       1     MMT1     Omg    3334	-1.180833	15.999410
3335    Op       1     MMT1      Op    3335	-1.050000	15.999410
3336  Ohmg       1     MMT1    Ohmg    3336	-1.080833	15.999410
3337    Ob       1     MMT1      Ob    3337	-1.050000	15.999410
3338    Ob       1     MMT1      Ob    3338	-1.050000	15.999410
3339    Ob       1     MMT1      Ob    3339	-1.050000	15.999410
3340     H       1     MMT1       H    3340	0.425000	1.007940
3341    Al       1     MMT1      Al    3341	1.575000	26.981540
3342    Si       1     MMT1      Si    3342	2.100000	28.085380
3343    Si       1     MMT1      Si    3343	2.100000	28.085380
3344    Op       1     MMT1      Op    3344	-1.050000	15.999410
3345    Op       1     MMT1      Op    3345	-1.050000	15.999410
3346  Ohmg       1     MMT1    Ohmg    3346	-1.080833	15.999410
3347    Ob       1     MMT1      Ob    3347	-1.050000	15.999410
3348    Ob       1     MMT1      Ob    3348	-1.050000	15.999410
3349    Ob       1     MMT1      Ob    3349	-1.050000	15.999410
3350     H       1     MMT1       H    3350	0.425000	1.007940
3351   Mgo       1     MMT1     Mgo    3351	1.360000	24.305000
3352    Si       1     MMT1      Si    3352	2.100000	28.085380
3353    Si       1     MMT1      Si    3353	2.100000	28.085380
3354   Omg       1     MMT1     Omg    3354	-1.180833	15.999410
3355    Op       1     MMT1      Op    3355	-1.050000	15.999410
3356  Ohmg       1     MMT1    Ohmg    3356	-1.080833	15.999410
3357    Ob       1     MMT1      Ob    3357	-1.050000	15.999410
3358    Ob       1     MMT1      Ob    3358	-1.050000	15.999410
3359    Ob       1     MMT1      Ob    3359	-1.050000	15.999410
3360     H       1     MMT1       H    3360	0.425000	1.007940

[ bonds ] 
; i    j    type
6     10    1     ; 0.0970   Ohmg-H 
16    20    1     ; 0.0970   Ohmg-H 
26    30    1     ; 0.0970   Ohmg-H 
36    40    1     ; 0.0970   Ohmg-H 
46    50    1     ; 0.0970   Oh-H 
56    60    1     ; 0.0970   Ohmg-H 
66    70    1     ; 0.0970   Ohmg-H 
76    80    1     ; 0.0970   Oh-H 
86    90    1     ; 0.0970   Ohmg-H 
96    100   1     ; 0.0970   Oh-H 
106   110   1     ; 0.0970   Oh-H 
116   120   1     ; 0.0970   Ohmg-H 
126   130   1     ; 0.0970   Oh-H 
136   140   1     ; 0.0970   Ohmg-H 
146   150   1     ; 0.0970   Ohmg-H 
156   160   1     ; 0.0970   Oh-H 
166   170   1     ; 0.0970   Ohmg-H 
176   180   1     ; 0.0970   Ohmg-H 
186   190   1     ; 0.0970   Ohmg-H 
196   200   1     ; 0.0970   Ohmg-H 
206   210   1     ; 0.0970   Oh-H 
216   220   1     ; 0.0970   Oh-H 
226   230   1     ; 0.0970   Oh-H 
236   240   1     ; 0.0970   Oh-H 
246   250   1     ; 0.0970   Ohmg-H 
256   260   1     ; 0.0970   Ohmg-H 
266   270   1     ; 0.0970   Ohmg-H 
276   280   1     ; 0.0970   Ohmg-H 
286   290   1     ; 0.0970   Oh-H 
296   300   1     ; 0.0970   Ohmg-H 
306   310   1     ; 0.0970   Ohmg-H 
316   320   1     ; 0.0970   Oh-H 
326   330   1     ; 0.0970   Oh-H 
336   340   1     ; 0.0970   Oh-H 
346   350   1     ; 0.0970   Oh-H 
356   360   1     ; 0.0970   Oh-H 
366   370   1     ; 0.0970   Oh-H 
376   380   1     ; 0.0970   Oh-H 
386   390   1     ; 0.0970   Oh-H 
396   400   1     ; 0.0970   Oh-H 
406   410   1     ; 0.0970   Oh-H 
416   420   1     ; 0.0970   Ohmg-H 
426   430   1     ; 0.0970   Ohmg-H 
436   440   1     ; 0.0970   Oh-H 
446   450   1     ; 0.0970   Ohmg-H 
456   460   1     ; 0.0970   Oh-H 
466   470   1     ; 0.0970   Oh-H 
476   480   1     ; 0.0970   Ohmg-H 
486   490   1     ; 0.0970   Oh-H 
496   500   1     ; 0.0970   Oh-H 
506   510   1     ; 0.0970   Oh-H 
516   520   1     ; 0.0970   Oh-H 
526   530   1     ; 0.0970   Ohmg-H 
536   540   1     ; 0.0970   Ohmg-H 
546   550   1     ; 0.0970   Ohmg-H 
556   560   1     ; 0.0970   Ohmg-H 
566   570   1     ; 0.0970   Ohmg-H 
576   580   1     ; 0.0970   Oh-H 
586   590   1     ; 0.0970   Oh-H 
596   600   1     ; 0.0970   Ohmg-H 
606   610   1     ; 0.0970   Oh-H 
616   620   1     ; 0.0970   Oh-H 
626   630   1     ; 0.0970   Oh-H 
636   640   1     ; 0.0970   Oh-H 
646   650   1     ; 0.0970   Ohmg-H 
656   660   1     ; 0.0970   Oh-H 
666   670   1     ; 0.0970   Oh-H 
676   680   1     ; 0.0970   Ohmg-H 
686   690   1     ; 0.0970   Oh-H 
696   700   1     ; 0.0970   Ohmg-H 
706   710   1     ; 0.0970   Ohmg-H 
716   720   1     ; 0.0970   Oh-H 
726   730   1     ; 0.0970   Ohmg-H 
736   740   1     ; 0.0970   Ohmg-H 
746   750   1     ; 0.0970   Ohmg-H 
756   760   1     ; 0.0970   Ohmg-H 
766   770   1     ; 0.0970   Ohmg-H 
776   780   1     ; 0.0970   Oh-H 
786   790   1     ; 0.0970   Oh-H 
796   800   1     ; 0.0970   Ohmg-H 
806   810   1     ; 0.0970   Oh-H 
816   820   1     ; 0.0970   Ohmg-H 
826   830   1     ; 0.0970   Ohmg-H 
836   840   1     ; 0.0970   Oh-H 
846   850   1     ; 0.0970   Ohmg-H 
856   860   1     ; 0.0970   Oh-H 
866   870   1     ; 0.0970   Oh-H 
876   880   1     ; 0.0970   Ohmg-H 
886   890   1     ; 0.0970   Ohmg-H 
896   900   1     ; 0.0970   Ohmg-H 
906   910   1     ; 0.0970   Ohmg-H 
916   920   1     ; 0.0970   Ohmg-H 
926   930   1     ; 0.0970   Ohmg-H 
936   940   1     ; 0.0970   Ohmg-H 
946   950   1     ; 0.0970   Ohmg-H 
956   960   1     ; 0.0970   Ohmg-H 
966   970   1     ; 0.0970   Ohmg-H 
976   980   1     ; 0.0970   Ohmg-H 
986   990   1     ; 0.0970   Ohmg-H 
996   1000  1     ; 0.0970   Ohmg-H 
1006  1010  1     ; 0.0970   Oh-H 
1016  1020  1     ; 0.0970   Oh-H 
1026  1030  1     ; 0.0970   Oh-H 
1036  1040  1     ; 0.0970   Oh-H 
1046  1050  1     ; 0.0970   Ohmg-H 
1056  1060  1     ; 0.0970   Oh-H 
1066  1070  1     ; 0.0970   Oh-H 
1076  1080  1     ; 0.0970   Ohmg-H 
1086  1090  1     ; 0.0970   Oh-H 
1096  1100  1     ; 0.0970   Oh-H 
1106  1110  1     ; 0.0970   Oh-H 
1116  1120  1     ; 0.0970   Oh-H 
1126  1130  1     ; 0.0970   Ohmg-H 
1136  1140  1     ; 0.0970   Ohmg-H 
1146  1150  1     ; 0.0970   Ohmg-H 
1156  1160  1     ; 0.0970   Ohmg-H 
1166  1170  1     ; 0.0970   Oh-H 
1176  1180  1     ; 0.0970   Ohmg-H 
1186  1190  1     ; 0.0970   Ohmg-H 
1196  1200  1     ; 0.0970   Oh-H 
1206  1210  1     ; 0.0970   Oh-H 
1216  1220  1     ; 0.0970   Ohmg-H 
1226  1230  1     ; 0.0970   Ohmg-H 
1236  1240  1     ; 0.0970   Oh-H 
1246  1250  1     ; 0.0970   Oh-H 
1256  1260  1     ; 0.0970   Oh-H 
1266  1270  1     ; 0.0970   Oh-H 
1276  1280  1     ; 0.0970   Oh-H 
1286  1290  1     ; 0.0970   Ohmg-H 
1296  1300  1     ; 0.0970   Ohmg-H 
1306  1310  1     ; 0.0970   Ohmg-H 
1316  1320  1     ; 0.0970   Ohmg-H 
1326  1330  1     ; 0.0970   Oh-H 
1336  1340  1     ; 0.0970   Oh-H 
1346  1350  1     ; 0.0970   Oh-H 
1356  1360  1     ; 0.0970   Oh-H 
1366  1370  1     ; 0.0970   Oh-H 
1376  1380  1     ; 0.0970   Ohmg-H 
1386  1390  1     ; 0.0970   Ohmg-H 
1396  1400  1     ; 0.0970   Oh-H 
1406  1410  1     ; 0.0970   Oh-H 
1416  1420  1     ; 0.0970   Oh-H 
1426  1430  1     ; 0.0970   Oh-H 
1436  1440  1     ; 0.0970   Oh-H 
1446  1450  1     ; 0.0970   Ohmg-H 
1456  1460  1     ; 0.0970   Ohmg-H 
1466  1470  1     ; 0.0970   Ohmg-H 
1476  1480  1     ; 0.0970   Ohmg-H 
1486  1490  1     ; 0.0970   Ohmg-H 
1496  1500  1     ; 0.0970   Oh-H 
1506  1510  1     ; 0.0970   Oh-H 
1516  1520  1     ; 0.0970   Ohmg-H 
1526  1530  1     ; 0.0970   Ohmg-H 
1536  1540  1     ; 0.0970   Oh-H 
1546  1550  1     ; 0.0970   Oh-H 
1556  1560  1     ; 0.0970   Ohmg-H 
1566  1570  1     ; 0.0970   Oh-H 
1576  1580  1     ; 0.0970   Oh-H 
1586  1590  1     ; 0.0970   Oh-H 
1596  1600  1     ; 0.0970   Oh-H 
1606  1610  1     ; 0.0970   Oh-H 
1616  1620  1     ; 0.0970   Ohmg-H 
1626  1630  1     ; 0.0970   Ohmg-H 
1636  1640  1     ; 0.0970   Oh-H 
1646  1650  1     ; 0.0970   Ohmg-H 
1656  1660  1     ; 0.0970   Ohmg-H 
1666  1670  1     ; 0.0970   Ohmg-H 
1676  1680  1     ; 0.0970   Ohmg-H 
1686  1690  1     ; 0.0970   Oh-H 
1696  1700  1     ; 0.0970   Oh-H 
1706  1710  1     ; 0.0970   Oh-H 
1716  1720  1     ; 0.0970   Oh-H 
1726  1730  1     ; 0.0970   Oh-H 
1736  1740  1     ; 0.0970   Oh-H 
1746  1750  1     ; 0.0970   Oh-H 
1756  1760  1     ; 0.0970   Oh-H 
1766  1770  1     ; 0.0970   Oh-H 
1776  1780  1     ; 0.0970   Ohmg-H 
1786  1790  1     ; 0.0970   Ohmg-H 
1796  1800  1     ; 0.0970   Oh-H 
1806  1810  1     ; 0.0970   Oh-H 
1816  1820  1     ; 0.0970   Oh-H 
1826  1830  1     ; 0.0970   Oh-H 
1836  1840  1     ; 0.0970   Oh-H 
1846  1850  1     ; 0.0970   Ohmg-H 
1856  1860  1     ; 0.0970   Oh-H 
1866  1870  1     ; 0.0970   Oh-H 
1876  1880  1     ; 0.0970   Ohmg-H 
1886  1890  1     ; 0.0970   Ohmg-H 
1896  1900  1     ; 0.0970   Ohmg-H 
1906  1910  1     ; 0.0970   Ohmg-H 
1916  1920  1     ; 0.0970   Ohmg-H 
1926  1930  1     ; 0.0970   Ohmg-H 
1936  1940  1     ; 0.0970   Ohmg-H 
1946  1950  1     ; 0.0970   Ohmg-H 
1956  1960  1     ; 0.0970   Ohmg-H 
1966  1970  1     ; 0.0970   Ohmg-H 
1976  1980  1     ; 0.0970   Ohmg-H 
1986  1990  1     ; 0.0970   Ohmg-H 
1996  2000  1     ; 0.0970   Ohmg-H 
2006  2010  1     ; 0.0970   Oh-H 
2016  2020  1     ; 0.0970   Oh-H 
2026  2030  1     ; 0.0970   Oh-H 
2036  2040  1     ; 0.0970   Oh-H 
2046  2050  1     ; 0.0970   Ohmg-H 
2056  2060  1     ; 0.0970   Oh-H 
2066  2070  1     ; 0.0970   Oh-H 
2076  2080  1     ; 0.0970   Ohmg-H 
2086  2090  1     ; 0.0970   Oh-H 
2096  2100  1     ; 0.0970   Ohmg-H 
2106  2110  1     ; 0.0970   Ohmg-H 
2116  2120  1     ; 0.0970   Oh-H 
2126  2130  1     ; 0.0970   Oh-H 
2136  2140  1     ; 0.0970   Ohmg-H 
2146  2150  1     ; 0.0970   Ohmg-H 
2156  2160  1     ; 0.0970   Oh-H 
2166  2170  1     ; 0.0970   Ohmg-H 
2176  2180  1     ; 0.0970   Oh-H 
2186  2190  1     ; 0.0970   Oh-H 
2196  2200  1     ; 0.0970   Ohmg-H 
2206  2210  1     ; 0.0970   Ohmg-H 
2216  2220  1     ; 0.0970   Ohmg-H 
2226  2230  1     ; 0.0970   Ohmg-H 
2236  2240  1     ; 0.0970   Ohmg-H 
2246  2250  1     ; 0.0970   Oh-H 
2256  2260  1     ; 0.0970   Ohmg-H 
2266  2270  1     ; 0.0970   Ohmg-H 
2276  2280  1     ; 0.0970   Oh-H 
2286  2290  1     ; 0.0970   Oh-H 
2296  2300  1     ; 0.0970   Oh-H 
2306  2310  1     ; 0.0970   Oh-H 
2316  2320  1     ; 0.0970   Oh-H 
2326  2330  1     ; 0.0970   Oh-H 
2336  2340  1     ; 0.0970   Oh-H 
2346  2350  1     ; 0.0970   Oh-H 
2356  2360  1     ; 0.0970   Oh-H 
2366  2370  1     ; 0.0970   Oh-H 
2376  2380  1     ; 0.0970   Ohmg-H 
2386  2390  1     ; 0.0970   Ohmg-H 
2396  2400  1     ; 0.0970   Oh-H 
2406  2410  1     ; 0.0970   Ohmg-H 
2416  2420  1     ; 0.0970   Oh-H 
2426  2430  1     ; 0.0970   Oh-H 
2436  2440  1     ; 0.0970   Ohmg-H 
2446  2450  1     ; 0.0970   Ohmg-H 
2456  2460  1     ; 0.0970   Ohmg-H 
2466  2470  1     ; 0.0970   Ohmg-H 
2476  2480  1     ; 0.0970   Ohmg-H 
2486  2490  1     ; 0.0970   Ohmg-H 
2496  2500  1     ; 0.0970   Oh-H 
2506  2510  1     ; 0.0970   Oh-H 
2516  2520  1     ; 0.0970   Ohmg-H 
2526  2530  1     ; 0.0970   Oh-H 
2536  2540  1     ; 0.0970   Ohmg-H 
2546  2550  1     ; 0.0970   Ohmg-H 
2556  2560  1     ; 0.0970   Oh-H 
2566  2570  1     ; 0.0970   Ohmg-H 
2576  2580  1     ; 0.0970   Ohmg-H 
2586  2590  1     ; 0.0970   Ohmg-H 
2596  2600  1     ; 0.0970   Ohmg-H 
2606  2610  1     ; 0.0970   Ohmg-H 
2616  2620  1     ; 0.0970   Oh-H 
2626  2630  1     ; 0.0970   Oh-H 
2636  2640  1     ; 0.0970   Ohmg-H 
2646  2650  1     ; 0.0970   Oh-H 
2656  2660  1     ; 0.0970   Oh-H 
2666  2670  1     ; 0.0970   Oh-H 
2676  2680  1     ; 0.0970   Oh-H 
2686  2690  1     ; 0.0970   Ohmg-H 
2696  2700  1     ; 0.0970   Oh-H 
2706  2710  1     ; 0.0970   Oh-H 
2716  2720  1     ; 0.0970   Ohmg-H 
2726  2730  1     ; 0.0970   Oh-H 
2736  2740  1     ; 0.0970   Ohmg-H 
2746  2750  1     ; 0.0970   Ohmg-H 
2756  2760  1     ; 0.0970   Oh-H 
2766  2770  1     ; 0.0970   Ohmg-H 
2776  2780  1     ; 0.0970   Ohmg-H 
2786  2790  1     ; 0.0970   Ohmg-H 
2796  2800  1     ; 0.0970   Ohmg-H 
2806  2810  1     ; 0.0970   Ohmg-H 
2816  2820  1     ; 0.0970   Oh-H 
2826  2830  1     ; 0.0970   Oh-H 
2836  2840  1     ; 0.0970   Ohmg-H 
2846  2850  1     ; 0.0970   Oh-H 
2856  2860  1     ; 0.0970   Oh-H 
2866  2870  1     ; 0.0970   Oh-H 
2876  2880  1     ; 0.0970   Oh-H 
2886  2890  1     ; 0.0970   Oh-H 
2896  2900  1     ; 0.0970   Oh-H 
2906  2910  1     ; 0.0970   Oh-H 
2916  2920  1     ; 0.0970   Oh-H 
2926  2930  1     ; 0.0970   Ohmg-H 
2936  2940  1     ; 0.0970   Ohmg-H 
2946  2950  1     ; 0.0970   Ohmg-H 
2956  2960  1     ; 0.0970   Ohmg-H 
2966  2970  1     ; 0.0970   Oh-H 
2976  2980  1     ; 0.0970   Ohmg-H 
2986  2990  1     ; 0.0970   Ohmg-H 
2996  3000  1     ; 0.0970   Oh-H 
3006  3010  1     ; 0.0970   Oh-H 
3016  3020  1     ; 0.0970   Ohmg-H 
3026  3030  1     ; 0.0970   Ohmg-H 
3036  3040  1     ; 0.0970   Oh-H 
3046  3050  1     ; 0.0970   Oh-H 
3056  3060  1     ; 0.0970   Oh-H 
3066  3070  1     ; 0.0970   Oh-H 
3076  3080  1     ; 0.0970   Oh-H 
3086  3090  1     ; 0.0970   Ohmg-H 
3096  3100  1     ; 0.0970   Ohmg-H 
3106  3110  1     ; 0.0970   Ohmg-H 
3116  3120  1     ; 0.0970   Ohmg-H 
3126  3130  1     ; 0.0970   Oh-H 
3136  3140  1     ; 0.0970   Ohmg-H 
3146  3150  1     ; 0.0970   Ohmg-H 
3156  3160  1     ; 0.0970   Oh-H 
3166  3170  1     ; 0.0970   Oh-H 
3176  3180  1     ; 0.0970   Oh-H 
3186  3190  1     ; 0.0970   Oh-H 
3196  3200  1     ; 0.0970   Oh-H 
3206  3210  1     ; 0.0970   Ohmg-H 
3216  3220  1     ; 0.0970   Oh-H 
3226  3230  1     ; 0.0970   Oh-H 
3236  3240  1     ; 0.0970   Ohmg-H 
3246  3250  1     ; 0.0970   Oh-H 
3256  3260  1     ; 0.0970   Ohmg-H 
3266  3270  1     ; 0.0970   Ohmg-H 
3276  3280  1     ; 0.0970   Oh-H 
3286  3290  1     ; 0.0970   Ohmg-H 
3296  3300  1     ; 0.0970   Oh-H 
3306  3310  1     ; 0.0970   Oh-H 
3316  3320  1     ; 0.0970   Ohmg-H 
3326  3330  1     ; 0.0970   Ohmg-H 
3336  3340  1     ; 0.0970   Ohmg-H 
3346  3350  1     ; 0.0970   Ohmg-H 
3356  3360  1     ; 0.0970   Ohmg-H 


[ angles ] 
; i    j   k   type
