define      	= -DPOSRES_P1 -DPOSRES_P2
; Run parameters
integrator		= md		; leap-frog integrator
nsteps			= 5000000	; 5 ns in npt
nstcomm     	= 100       ; Restrain COM every ... step
dt	        	= 0.0005	    ; timestep, 0.5 fs
comm-mode       = Linear	; Linear COM mass control every? 10 steps
comm-grps       = MMT1 MMT2 Na H2 SOL ; Groups to apply COM control to 
; Output control
nstxout     	= 0         ; save coordinates (high precision) every 0 timestep
nstvout			= 0		    ; save velocities every 0 timestep
nstfout    		= 0		    ; save forces every 0 timestep
nstxout-compressed		= 1000		; xtc compressed trajectory output every x steps
nstenergy		= 0		; save energies every 0.1 ps
nstlog			= 100		; update log file every 0.1 ps
;energygrps		= MMT1 MMT2 Na H2 SOL
; Bond parameters
continuation	= no		; second dynamics run
constraint_algorithm = lincs	; holonomic constraints 
constraints		= h-bonds  	; none
lincs_iter		= 1			; accuracy of LINCS
lincs_order	    = 4			; also related to accuracy

; Neighborsearching
ns_type			= grid		; search neighboring grid cells
nstlist			= 20		; 20 fs
rlist			= 1.0		; short-range neighborlist cutoff (in nm)
cutoff-scheme        = Verlet
verlet-buffer-tolerance  = 0.005

; Electrostatics and vdw
coulombtype		= PME		; Particle Mesh Ewald for long-range electrostatics
pme_order		= 4		    ; cubic interpolation
fourierspacing	= 0.16		; grid spacing for FFT
rcoulomb		= 1.2		; short-range electrostatic cutoff (in nm)
rvdw			= 1.2		; short-range van der Waals cutoff (in nm)

; Temperature coupling is on
tcoupl			= Nose-Hoover	        ; modified Berendsen thermostat
tc-grps         = MMT1 MMT2 Na H2 SOL      	; two coupling groups - more accurate
tau_t           = 0.5 0.5 0.5 0.5 0.5    ; time constant, in ps
ref_t           = 368.15 368.15	368.15 368.15 368.15        	; reference temperature, one for each group, in K

; Pressure coupling is on
pcoupl			= parrinello-rahman             ; Parrinello-Rahman		; Pressure coupling on in NPT
pcoupltype		= isotropic	       	 			; keeps same pressure in x/y directions, separate in z
tau-p			= 100          		; time constant, in ps
ref-p			= 300.0 300.0 300.0 300.0  300.0     ; reference pressure, in bar
compressibility = 4.5E-5 4. v5E-5	4.5E-5  4.5E-5  ; isothermal compressibility of water, bar^-1
refcoord-scaling = com

; Periodic boundary conditions
pbc				= xyz		; 3-D PBC
periodic-molecules = yes

; Dispersion correction
DispCorr		= EnerPres	; account for cut-off vdW scheme
