Created in Matlab
6968
    1MMT1    Al    1   0.239   0.195   0.000
    1MMT1    Si    2   0.315   0.005   0.268
    1MMT1    Si    3   0.325   0.300   0.269
    1MMT1    Op    4   0.295   0.032   0.106
    1MMT1    Op    5   0.340   0.307   0.106
    1MMT1  Ohmg    6   0.080   0.204   0.099
    1MMT1    Ob    7   6.140   0.348   0.330
    1MMT1    Ob    8   0.295   0.146   0.330
    1MMT1    Ob    9   0.209   0.400   0.306
    1MMT1     H   10   0.040   0.127   0.143
    1MMT1    Al   11   6.178   0.643   0.000
    1MMT1    Si   12   0.061   0.454   0.268
    1MMT1    Si   13   0.072   0.748   0.269
    1MMT1   Omg   14   0.042   0.480   0.106
    1MMT1   Omg   15   0.087   0.755   0.106
    1MMT1  Ohmg   16   0.343   0.652   0.099
    1MMT1    Ob   17   0.211   0.797   0.330
    1MMT1    Ob   18   0.041   0.595   0.330
    1MMT1    Ob   19   6.148   0.848   0.306
    1MMT1     H   20   0.303   0.575   0.143
    1MMT1   Mgo   21   0.246   0.792   0.000
    1MMT1    Si   22   0.161   0.085  10.082
    1MMT1    Si   23   0.160   0.687  10.081
    1MMT1    Op   24   0.180   0.058  10.244
    1MMT1   Omg   25   0.145   0.680  10.244
    1MMT1  Ohmg   26   0.405   0.783  10.251
    1MMT1    Ob   27   0.537   0.639  10.020
    1MMT1    Ob   28   0.190   0.841  10.021
    1MMT1    Ob   29   0.276   0.587  10.045
    1MMT1     H   30   0.445   0.860  10.208
    1MMT1   Mgo   31   6.175   0.344   0.000
    1MMT1    Si   32   0.424   0.533  10.082
    1MMT1    Si   33   0.413   0.239  10.081
    1MMT1    Op   34   0.443   0.507  10.244
    1MMT1    Op   35   0.398   0.232  10.244
    1MMT1  Ohmg   36   0.142   0.334  10.251
    1MMT1    Ob   37   0.274   0.190  10.020
    1MMT1    Ob   38   0.444   0.392  10.021
    1MMT1    Ob   39   0.529   0.139  10.045
    1MMT1     H   40   0.182   0.412  10.208
    1MMT1    Al   41   0.755   0.195   0.000
    1MMT1    Si   42   0.831   0.005   0.268
    1MMT1    Si   43   0.841   0.300   0.269
    1MMT1   Omg   44   0.811   0.032   0.106
    1MMT1    Op   45   0.856   0.307   0.106
    1MMT1    Oh   46   0.596   0.204   0.099
    1MMT1    Ob   47   0.464   0.348   0.330
    1MMT1    Ob   48   0.811   0.146   0.330
    1MMT1    Ob   49   0.725   0.400   0.306
    1MMT1     H   50   0.556   0.127   0.143
    1MMT1    Al   51   0.502   0.643   0.000
    1MMT1    Si   52   0.577   0.454   0.268
    1MMT1    Si   53   0.588   0.748   0.269
    1MMT1    Op   54   0.558   0.480   0.106
    1MMT1    Op   55   0.603   0.755   0.106
    1MMT1  Ohmg   56   0.859   0.652   0.099
    1MMT1    Ob   57   0.727   0.797   0.330
    1MMT1    Ob   58   0.557   0.595   0.330
    1MMT1    Ob   59   0.472   0.848   0.306
    1MMT1     H   60   0.819   0.575   0.143
    1MMT1    Al   61   0.762   0.792   0.000
    1MMT1    Si   62   0.677   0.085  10.082
    1MMT1    Si   63   0.676   0.687  10.081
    1MMT1   Omg   64   0.696   0.058  10.244
    1MMT1    Op   65   0.661   0.680  10.244
    1MMT1  Ohmg   66   0.921   0.783  10.251
    1MMT1    Ob   67   1.053   0.639  10.020
    1MMT1    Ob   68   0.706   0.841  10.021
    1MMT1    Ob   69   0.792   0.587  10.045
    1MMT1     H   70   0.961   0.860  10.208
    1MMT1    Al   71   0.499   0.344   0.000
    1MMT1    Si   72   0.940   0.533  10.082
    1MMT1    Si   73   0.929   0.239  10.081
    1MMT1   Omg   74   0.959   0.507  10.244
    1MMT1    Op   75   0.914   0.232  10.244
    1MMT1    Oh   76   0.658   0.334  10.251
    1MMT1    Ob   77   0.790   0.190  10.020
    1MMT1    Ob   78   0.960   0.392  10.021
    1MMT1    Ob   79   1.045   0.139  10.045
    1MMT1     H   80   0.698   0.412  10.208
    1MMT1   Mgo   81   1.271   0.195   0.000
    1MMT1    Si   82   1.347   0.005   0.268
    1MMT1    Si   83   1.357   0.300   0.269
    1MMT1   Omg   84   1.327   0.032   0.106
    1MMT1   Omg   85   1.372   0.307   0.106
    1MMT1  Ohmg   86   1.112   0.204   0.099
    1MMT1    Ob   87   0.980   0.348   0.330
    1MMT1    Ob   88   1.327   0.146   0.330
    1MMT1    Ob   89   1.241   0.400   0.306
    1MMT1     H   90   1.072   0.127   0.143
    1MMT1   Mgo   91   1.018   0.643   0.000
    1MMT1    Si   92   1.093   0.454   0.268
    1MMT1    Si   93   1.104   0.748   0.269
    1MMT1   Omg   94   1.074   0.480   0.106
    1MMT1   Omg   95   1.119   0.755   0.106
    1MMT1    Oh   96   1.375   0.652   0.099
    1MMT1    Ob   97   1.243   0.797   0.330
    1MMT1    Ob   98   1.073   0.595   0.330
    1MMT1    Ob   99   0.988   0.848   0.306
    1MMT1     H  100   1.335   0.575   0.143
    1MMT1    Al  101   1.278   0.792   0.000
    1MMT1    Si  102   1.193   0.085  10.082
    1MMT1    Si  103   1.192   0.687  10.081
    1MMT1   Omg  104   1.212   0.058  10.244
    1MMT1   Omg  105   1.177   0.680  10.244
    1MMT1    Oh  106   1.437   0.783  10.251
    1MMT1    Ob  107   1.569   0.639  10.020
    1MMT1    Ob  108   1.222   0.841  10.021
    1MMT1    Ob  109   1.308   0.587  10.045
    1MMT1     H  110   1.477   0.860  10.208
    1MMT1    Al  111   1.015   0.344   0.000
    1MMT1    Si  112   1.456   0.533  10.082
    1MMT1    Si  113   1.445   0.239  10.081
    1MMT1    Op  114   1.475   0.507  10.244
    1MMT1   Omg  115   1.430   0.232  10.244
    1MMT1  Ohmg  116   1.174   0.334  10.251
    1MMT1    Ob  117   1.306   0.190  10.020
    1MMT1    Ob  118   1.476   0.392  10.021
    1MMT1    Ob  119   1.561   0.139  10.045
    1MMT1     H  120   1.214   0.412  10.208
    1MMT1    Al  121   1.787   0.195   0.000
    1MMT1    Si  122   1.863   0.005   0.268
    1MMT1    Si  123   1.873   0.300   0.269
    1MMT1    Op  124   1.843   0.032   0.106
    1MMT1   Omg  125   1.888   0.307   0.106
    1MMT1    Oh  126   1.628   0.204   0.099
    1MMT1    Ob  127   1.496   0.348   0.330
    1MMT1    Ob  128   1.843   0.146   0.330
    1MMT1    Ob  129   1.757   0.400   0.306
    1MMT1     H  130   1.588   0.127   0.143
    1MMT1    Al  131   1.534   0.643   0.000
    1MMT1    Si  132   1.609   0.454   0.268
    1MMT1    Si  133   1.620   0.748   0.269
    1MMT1    Op  134   1.590   0.480   0.106
    1MMT1   Omg  135   1.635   0.755   0.106
    1MMT1  Ohmg  136   1.891   0.652   0.099
    1MMT1    Ob  137   1.759   0.797   0.330
    1MMT1    Ob  138   1.589   0.595   0.330
    1MMT1    Ob  139   1.504   0.848   0.306
    1MMT1     H  140   1.851   0.575   0.143
    1MMT1   Mgo  141   1.794   0.792   0.000
    1MMT1    Si  142   1.709   0.085  10.082
    1MMT1    Si  143   1.708   0.687  10.081
    1MMT1    Op  144   1.728   0.058  10.244
    1MMT1   Omg  145   1.693   0.680  10.244
    1MMT1  Ohmg  146   1.953   0.783  10.251
    1MMT1    Ob  147   2.085   0.639  10.020
    1MMT1    Ob  148   1.738   0.841  10.021
    1MMT1    Ob  149   1.824   0.587  10.045
    1MMT1     H  150   1.993   0.860  10.208
    1MMT1    Al  151   1.531   0.344   0.000
    1MMT1    Si  152   1.972   0.533  10.082
    1MMT1    Si  153   1.961   0.239  10.081
    1MMT1   Omg  154   1.991   0.507  10.244
    1MMT1   Omg  155   1.946   0.232  10.244
    1MMT1    Oh  156   1.690   0.334  10.251
    1MMT1    Ob  157   1.822   0.190  10.020
    1MMT1    Ob  158   1.992   0.392  10.021
    1MMT1    Ob  159   2.077   0.139  10.045
    1MMT1     H  160   1.730   0.412  10.208
    1MMT1    Al  161   2.303   0.195   0.000
    1MMT1    Si  162   2.379   0.005   0.268
    1MMT1    Si  163   2.389   0.300   0.269
    1MMT1    Op  164   2.359   0.032   0.106
    1MMT1    Op  165   2.404   0.307   0.106
    1MMT1  Ohmg  166   2.144   0.204   0.099
    1MMT1    Ob  167   2.012   0.348   0.330
    1MMT1    Ob  168   2.359   0.146   0.330
    1MMT1    Ob  169   2.273   0.400   0.306
    1MMT1     H  170   2.104   0.127   0.143
    1MMT1    Al  171   2.050   0.643   0.000
    1MMT1    Si  172   2.125   0.454   0.268
    1MMT1    Si  173   2.136   0.748   0.269
    1MMT1   Omg  174   2.106   0.480   0.106
    1MMT1    Op  175   2.151   0.755   0.106
    1MMT1  Ohmg  176   2.407   0.652   0.099
    1MMT1    Ob  177   2.275   0.797   0.330
    1MMT1    Ob  178   2.105   0.595   0.330
    1MMT1    Ob  179   2.020   0.848   0.306
    1MMT1     H  180   2.367   0.575   0.143
    1MMT1    Al  181   2.310   0.792   0.000
    1MMT1    Si  182   2.225   0.085  10.082
    1MMT1    Si  183   2.224   0.687  10.081
    1MMT1    Op  184   2.244   0.058  10.244
    1MMT1    Op  185   2.209   0.680  10.244
    1MMT1  Ohmg  186   2.469   0.783  10.251
    1MMT1    Ob  187   2.601   0.639  10.020
    1MMT1    Ob  188   2.254   0.841  10.021
    1MMT1    Ob  189   2.340   0.587  10.045
    1MMT1     H  190   2.509   0.860  10.208
    1MMT1   Mgo  191   2.047   0.344   0.000
    1MMT1    Si  192   2.488   0.533  10.082
    1MMT1    Si  193   2.477   0.239  10.081
    1MMT1   Omg  194   2.507   0.507  10.244
    1MMT1    Op  195   2.462   0.232  10.244
    1MMT1  Ohmg  196   2.206   0.334  10.251
    1MMT1    Ob  197   2.338   0.190  10.020
    1MMT1    Ob  198   2.508   0.392  10.021
    1MMT1    Ob  199   2.593   0.139  10.045
    1MMT1     H  200   2.246   0.412  10.208
    1MMT1    Al  201   2.819   0.195   0.000
    1MMT1    Si  202   2.895   0.005   0.268
    1MMT1    Si  203   2.905   0.300   0.269
    1MMT1   Omg  204   2.875   0.032   0.106
    1MMT1   Omg  205   2.920   0.307   0.106
    1MMT1    Oh  206   2.660   0.204   0.099
    1MMT1    Ob  207   2.528   0.348   0.330
    1MMT1    Ob  208   2.875   0.146   0.330
    1MMT1    Ob  209   2.789   0.400   0.306
    1MMT1     H  210   2.620   0.127   0.143
    1MMT1   Mgo  211   2.566   0.643   0.000
    1MMT1    Si  212   2.641   0.454   0.268
    1MMT1    Si  213   2.652   0.748   0.269
    1MMT1   Omg  214   2.622   0.480   0.106
    1MMT1   Omg  215   2.667   0.755   0.106
    1MMT1    Oh  216   2.923   0.652   0.099
    1MMT1    Ob  217   2.791   0.797   0.330
    1MMT1    Ob  218   2.621   0.595   0.330
    1MMT1    Ob  219   2.536   0.848   0.306
    1MMT1     H  220   2.883   0.575   0.143
    1MMT1    Al  221   2.826   0.792   0.000
    1MMT1    Si  222   2.741   0.085  10.082
    1MMT1    Si  223   2.740   0.687  10.081
    1MMT1   Omg  224   2.760   0.058  10.244
    1MMT1   Omg  225   2.725   0.680  10.244
    1MMT1    Oh  226   2.985   0.783  10.251
    1MMT1    Ob  227   3.117   0.639  10.020
    1MMT1    Ob  228   2.770   0.841  10.021
    1MMT1    Ob  229   2.856   0.587  10.045
    1MMT1     H  230   3.025   0.860  10.208
    1MMT1    Al  231   2.563   0.344   0.000
    1MMT1    Si  232   3.004   0.533  10.082
    1MMT1    Si  233   2.993   0.239  10.081
    1MMT1   Omg  234   3.023   0.507  10.244
    1MMT1   Omg  235   2.978   0.232  10.244
    1MMT1    Oh  236   2.722   0.334  10.251
    1MMT1    Ob  237   2.854   0.190  10.020
    1MMT1    Ob  238   3.024   0.392  10.021
    1MMT1    Ob  239   3.109   0.139  10.045
    1MMT1     H  240   2.762   0.412  10.208
    1MMT1    Al  241   3.335   0.195   0.000
    1MMT1    Si  242   3.411   0.005   0.268
    1MMT1    Si  243   3.421   0.300   0.269
    1MMT1   Omg  244   3.391   0.032   0.106
    1MMT1    Op  245   3.436   0.307   0.106
    1MMT1  Ohmg  246   3.176   0.204   0.099
    1MMT1    Ob  247   3.044   0.348   0.330
    1MMT1    Ob  248   3.391   0.146   0.330
    1MMT1    Ob  249   3.305   0.400   0.306
    1MMT1     H  250   3.136   0.127   0.143
    1MMT1    Al  251   3.082   0.643   0.000
    1MMT1    Si  252   3.157   0.454   0.268
    1MMT1    Si  253   3.168   0.748   0.269
    1MMT1   Omg  254   3.138   0.480   0.106
    1MMT1    Op  255   3.183   0.755   0.106
    1MMT1  Ohmg  256   3.439   0.652   0.099
    1MMT1    Ob  257   3.307   0.797   0.330
    1MMT1    Ob  258   3.137   0.595   0.330
    1MMT1    Ob  259   3.052   0.848   0.306
    1MMT1     H  260   3.399   0.575   0.143
    1MMT1    Al  261   3.342   0.792   0.000
    1MMT1    Si  262   3.257   0.085  10.082
    1MMT1    Si  263   3.256   0.687  10.081
    1MMT1   Omg  264   3.276   0.058  10.244
    1MMT1    Op  265   3.241   0.680  10.244
    1MMT1  Ohmg  266   3.501   0.783  10.251
    1MMT1    Ob  267   3.633   0.639  10.020
    1MMT1    Ob  268   3.286   0.841  10.021
    1MMT1    Ob  269   3.372   0.587  10.045
    1MMT1     H  270   3.541   0.860  10.208
    1MMT1   Mgo  271   3.079   0.344   0.000
    1MMT1    Si  272   3.520   0.533  10.082
    1MMT1    Si  273   3.509   0.239  10.081
    1MMT1   Omg  274   3.539   0.507  10.244
    1MMT1    Op  275   3.494   0.232  10.244
    1MMT1  Ohmg  276   3.238   0.334  10.251
    1MMT1    Ob  277   3.370   0.190  10.020
    1MMT1    Ob  278   3.540   0.392  10.021
    1MMT1    Ob  279   3.625   0.139  10.045
    1MMT1     H  280   3.278   0.412  10.208
    1MMT1    Al  281   3.851   0.195   0.000
    1MMT1    Si  282   3.927   0.005   0.268
    1MMT1    Si  283   3.937   0.300   0.269
    1MMT1    Op  284   3.907   0.032   0.106
    1MMT1    Op  285   3.952   0.307   0.106
    1MMT1    Oh  286   3.692   0.204   0.099
    1MMT1    Ob  287   3.560   0.348   0.330
    1MMT1    Ob  288   3.907   0.146   0.330
    1MMT1    Ob  289   3.821   0.400   0.306
    1MMT1     H  290   3.652   0.127   0.143
    1MMT1   Mgo  291   3.598   0.643   0.000
    1MMT1    Si  292   3.673   0.454   0.268
    1MMT1    Si  293   3.684   0.748   0.269
    1MMT1   Omg  294   3.654   0.480   0.106
    1MMT1   Omg  295   3.699   0.755   0.106
    1MMT1  Ohmg  296   3.955   0.652   0.099
    1MMT1    Ob  297   3.823   0.797   0.330
    1MMT1    Ob  298   3.653   0.595   0.330
    1MMT1    Ob  299   3.568   0.848   0.306
    1MMT1     H  300   3.915   0.575   0.143
    1MMT1    Al  301   3.858   0.792   0.000
    1MMT1    Si  302   3.773   0.085  10.082
    1MMT1    Si  303   3.772   0.687  10.081
    1MMT1    Op  304   3.792   0.058  10.244
    1MMT1   Omg  305   3.757   0.680  10.244
    1MMT1  Ohmg  306   4.017   0.783  10.251
    1MMT1    Ob  307   4.149   0.639  10.020
    1MMT1    Ob  308   3.802   0.841  10.021
    1MMT1    Ob  309   3.888   0.587  10.045
    1MMT1     H  310   4.057   0.860  10.208
    1MMT1    Al  311   3.595   0.344   0.000
    1MMT1    Si  312   4.036   0.533  10.082
    1MMT1    Si  313   4.025   0.239  10.081
    1MMT1   Omg  314   4.055   0.507  10.244
    1MMT1    Op  315   4.010   0.232  10.244
    1MMT1    Oh  316   3.754   0.334  10.251
    1MMT1    Ob  317   3.886   0.190  10.020
    1MMT1    Ob  318   4.056   0.392  10.021
    1MMT1    Ob  319   4.141   0.139  10.045
    1MMT1     H  320   3.794   0.412  10.208
    1MMT1    Al  321   4.367   0.195   0.000
    1MMT1    Si  322   4.443   0.005   0.268
    1MMT1    Si  323   4.453   0.300   0.269
    1MMT1    Op  324   4.423   0.032   0.106
    1MMT1    Op  325   4.468   0.307   0.106
    1MMT1    Oh  326   4.208   0.204   0.099
    1MMT1    Ob  327   4.076   0.348   0.330
    1MMT1    Ob  328   4.423   0.146   0.330
    1MMT1    Ob  329   4.337   0.400   0.306
    1MMT1     H  330   4.168   0.127   0.143
    1MMT1   Mgo  331   4.114   0.643   0.000
    1MMT1    Si  332   4.189   0.454   0.268
    1MMT1    Si  333   4.200   0.748   0.269
    1MMT1   Omg  334   4.170   0.480   0.106
    1MMT1   Omg  335   4.215   0.755   0.106
    1MMT1    Oh  336   4.471   0.652   0.099
    1MMT1    Ob  337   4.339   0.797   0.330
    1MMT1    Ob  338   4.169   0.595   0.330
    1MMT1    Ob  339   4.084   0.848   0.306
    1MMT1     H  340   4.431   0.575   0.143
    1MMT1    Al  341   4.374   0.792   0.000
    1MMT1    Si  342   4.289   0.085  10.082
    1MMT1    Si  343   4.288   0.687  10.081
    1MMT1    Op  344   4.308   0.058  10.244
    1MMT1   Omg  345   4.273   0.680  10.244
    1MMT1    Oh  346   4.533   0.783  10.251
    1MMT1    Ob  347   4.665   0.639  10.020
    1MMT1    Ob  348   4.318   0.841  10.021
    1MMT1    Ob  349   4.404   0.587  10.045
    1MMT1     H  350   4.573   0.860  10.208
    1MMT1    Al  351   4.111   0.344   0.000
    1MMT1    Si  352   4.552   0.533  10.082
    1MMT1    Si  353   4.541   0.239  10.081
    1MMT1    Op  354   4.571   0.507  10.244
    1MMT1    Op  355   4.526   0.232  10.244
    1MMT1    Oh  356   4.270   0.334  10.251
    1MMT1    Ob  357   4.402   0.190  10.020
    1MMT1    Ob  358   4.572   0.392  10.021
    1MMT1    Ob  359   4.657   0.139  10.045
    1MMT1     H  360   4.310   0.412  10.208
    1MMT1    Al  361   4.883   0.195   0.000
    1MMT1    Si  362   4.959   0.005   0.268
    1MMT1    Si  363   4.969   0.300   0.269
    1MMT1   Omg  364   4.939   0.032   0.106
    1MMT1    Op  365   4.984   0.307   0.106
    1MMT1    Oh  366   4.724   0.204   0.099
    1MMT1    Ob  367   4.592   0.348   0.330
    1MMT1    Ob  368   4.939   0.146   0.330
    1MMT1    Ob  369   4.853   0.400   0.306
    1MMT1     H  370   4.684   0.127   0.143
    1MMT1    Al  371   4.630   0.643   0.000
    1MMT1    Si  372   4.705   0.454   0.268
    1MMT1    Si  373   4.716   0.748   0.269
    1MMT1    Op  374   4.686   0.480   0.106
    1MMT1    Op  375   4.731   0.755   0.106
    1MMT1    Oh  376   4.987   0.652   0.099
    1MMT1    Ob  377   4.855   0.797   0.330
    1MMT1    Ob  378   4.685   0.595   0.330
    1MMT1    Ob  379   4.600   0.848   0.306
    1MMT1     H  380   4.947   0.575   0.143
    1MMT1    Al  381   4.890   0.792   0.000
    1MMT1    Si  382   4.805   0.085  10.082
    1MMT1    Si  383   4.804   0.687  10.081
    1MMT1   Omg  384   4.824   0.058  10.244
    1MMT1    Op  385   4.789   0.680  10.244
    1MMT1    Oh  386   5.049   0.783  10.251
    1MMT1    Ob  387   5.181   0.639  10.020
    1MMT1    Ob  388   4.834   0.841  10.021
    1MMT1    Ob  389   4.920   0.587  10.045
    1MMT1     H  390   5.089   0.860  10.208
    1MMT1    Al  391   4.627   0.344   0.000
    1MMT1    Si  392   5.068   0.533  10.082
    1MMT1    Si  393   5.057   0.239  10.081
    1MMT1    Op  394   5.087   0.507  10.244
    1MMT1    Op  395   5.042   0.232  10.244
    1MMT1    Oh  396   4.786   0.334  10.251
    1MMT1    Ob  397   4.918   0.190  10.020
    1MMT1    Ob  398   5.088   0.392  10.021
    1MMT1    Ob  399   5.173   0.139  10.045
    1MMT1     H  400   4.826   0.412  10.208
    1MMT1    Al  401   5.399   0.195   0.000
    1MMT1    Si  402   5.475   0.005   0.268
    1MMT1    Si  403   5.485   0.300   0.269
    1MMT1    Op  404   5.455   0.032   0.106
    1MMT1   Omg  405   5.500   0.307   0.106
    1MMT1    Oh  406   5.240   0.204   0.099
    1MMT1    Ob  407   5.108   0.348   0.330
    1MMT1    Ob  408   5.455   0.146   0.330
    1MMT1    Ob  409   5.369   0.400   0.306
    1MMT1     H  410   5.200   0.127   0.143
    1MMT1    Al  411   5.146   0.643   0.000
    1MMT1    Si  412   5.221   0.454   0.268
    1MMT1    Si  413   5.232   0.748   0.269
    1MMT1    Op  414   5.202   0.480   0.106
    1MMT1   Omg  415   5.247   0.755   0.106
    1MMT1  Ohmg  416   5.503   0.652   0.099
    1MMT1    Ob  417   5.371   0.797   0.330
    1MMT1    Ob  418   5.201   0.595   0.330
    1MMT1    Ob  419   5.116   0.848   0.306
    1MMT1     H  420   5.463   0.575   0.143
    1MMT1   Mgo  421   5.406   0.792   0.000
    1MMT1    Si  422   5.321   0.085  10.082
    1MMT1    Si  423   5.320   0.687  10.081
    1MMT1    Op  424   5.340   0.058  10.244
    1MMT1   Omg  425   5.305   0.680  10.244
    1MMT1  Ohmg  426   5.565   0.783  10.251
    1MMT1    Ob  427   5.697   0.639  10.020
    1MMT1    Ob  428   5.350   0.841  10.021
    1MMT1    Ob  429   5.436   0.587  10.045
    1MMT1     H  430   5.605   0.860  10.208
    1MMT1    Al  431   5.143   0.344   0.000
    1MMT1    Si  432   5.584   0.533  10.082
    1MMT1    Si  433   5.573   0.239  10.081
    1MMT1   Omg  434   5.603   0.507  10.244
    1MMT1   Omg  435   5.558   0.232  10.244
    1MMT1    Oh  436   5.302   0.334  10.251
    1MMT1    Ob  437   5.434   0.190  10.020
    1MMT1    Ob  438   5.604   0.392  10.021
    1MMT1    Ob  439   5.689   0.139  10.045
    1MMT1     H  440   5.342   0.412  10.208
    1MMT1    Al  441   5.915   0.195   0.000
    1MMT1    Si  442   5.991   0.005   0.268
    1MMT1    Si  443   6.001   0.300   0.269
    1MMT1    Op  444   5.971   0.032   0.106
    1MMT1   Omg  445   6.016   0.307   0.106
    1MMT1  Ohmg  446   5.756   0.204   0.099
    1MMT1    Ob  447   5.624   0.348   0.330
    1MMT1    Ob  448   5.971   0.146   0.330
    1MMT1    Ob  449   5.885   0.400   0.306
    1MMT1     H  450   5.716   0.127   0.143
    1MMT1    Al  451   5.662   0.643   0.000
    1MMT1    Si  452   5.737   0.454   0.268
    1MMT1    Si  453   5.748   0.748   0.269
    1MMT1   Omg  454   5.718   0.480   0.106
    1MMT1    Op  455   5.763   0.755   0.106
    1MMT1    Oh  456   6.019   0.652   0.099
    1MMT1    Ob  457   5.887   0.797   0.330
    1MMT1    Ob  458   5.717   0.595   0.330
    1MMT1    Ob  459   5.632   0.848   0.306
    1MMT1     H  460   5.979   0.575   0.143
    1MMT1    Al  461   5.922   0.792   0.000
    1MMT1    Si  462   5.837   0.085  10.082
    1MMT1    Si  463   5.836   0.687  10.081
    1MMT1    Op  464   5.856   0.058  10.244
    1MMT1    Op  465   5.821   0.680  10.244
    1MMT1    Oh  466   6.081   0.783  10.251
    1MMT1    Ob  467   0.021   0.639  10.020
    1MMT1    Ob  468   5.866   0.841  10.021
    1MMT1    Ob  469   5.952   0.587  10.045
    1MMT1     H  470   6.121   0.860  10.208
    1MMT1   Mgo  471   5.659   0.344   0.000
    1MMT1    Si  472   6.100   0.533  10.082
    1MMT1    Si  473   6.089   0.239  10.081
    1MMT1   Omg  474   6.119   0.507  10.244
    1MMT1   Omg  475   6.074   0.232  10.244
    1MMT1  Ohmg  476   5.818   0.334  10.251
    1MMT1    Ob  477   5.950   0.190  10.020
    1MMT1    Ob  478   6.120   0.392  10.021
    1MMT1    Ob  479   0.013   0.139  10.045
    1MMT1     H  480   5.858   0.412  10.208
    1MMT1    Al  481   0.249   1.092   0.000
    1MMT1    Si  482   0.324   0.902   0.268
    1MMT1    Si  483   0.335   1.197   0.269
    1MMT1   Omg  484   0.305   0.929   0.106
    1MMT1    Op  485   0.350   1.203   0.106
    1MMT1    Oh  486   0.090   1.101   0.099
    1MMT1    Ob  487   6.150   1.245   0.330
    1MMT1    Ob  488   0.304   1.043   0.330
    1MMT1    Ob  489   0.218   1.296   0.306
    1MMT1     H  490   0.050   1.024   0.143
    1MMT1   Mgo  491   6.187   1.540   0.000
    1MMT1    Si  492   0.071   1.350   0.268
    1MMT1    Si  493   0.082   1.645   0.269
    1MMT1   Omg  494   0.052   1.377   0.106
    1MMT1   Omg  495   0.097   1.651   0.106
    1MMT1    Oh  496   0.352   1.549   0.099
    1MMT1    Ob  497   0.221   1.693   0.330
    1MMT1    Ob  498   0.051   1.491   0.330
    1MMT1    Ob  499   6.157   1.745   0.306
    1MMT1     H  500   0.312   1.472   0.143
    1MMT1    Al  501   0.256   1.689   0.000
    1MMT1    Si  502   0.170   0.982  10.082
    1MMT1    Si  503   0.169   1.583  10.081
    1MMT1   Omg  504   0.190   0.955  10.244
    1MMT1   Omg  505   0.154   1.577  10.244
    1MMT1    Oh  506   0.415   1.679  10.251
    1MMT1    Ob  507   0.546   1.535  10.020
    1MMT1    Ob  508   0.200   1.737  10.021
    1MMT1    Ob  509   0.286   1.484  10.045
    1MMT1     H  510   0.455   1.756  10.208
    1MMT1    Al  511   6.185   1.240   0.000
    1MMT1    Si  512   0.433   1.430  10.082
    1MMT1    Si  513   0.423   1.135  10.081
    1MMT1    Op  514   0.453   1.403  10.244
    1MMT1    Op  515   0.407   1.129  10.244
    1MMT1    Oh  516   0.152   1.231  10.251
    1MMT1    Ob  517   0.284   1.087  10.020
    1MMT1    Ob  518   0.453   1.289  10.021
    1MMT1    Ob  519   0.539   1.036  10.045
    1MMT1     H  520   0.192   1.308  10.208
    1MMT1   Mgo  521   0.765   1.092   0.000
    1MMT1    Si  522   0.840   0.902   0.268
    1MMT1    Si  523   0.851   1.197   0.269
    1MMT1   Omg  524   0.821   0.929   0.106
    1MMT1   Omg  525   0.866   1.203   0.106
    1MMT1  Ohmg  526   0.606   1.101   0.099
    1MMT1    Ob  527   0.474   1.245   0.330
    1MMT1    Ob  528   0.820   1.043   0.330
    1MMT1    Ob  529   0.734   1.296   0.306
    1MMT1     H  530   0.566   1.024   0.143
    1MMT1    Al  531   0.511   1.540   0.000
    1MMT1    Si  532   0.587   1.350   0.268
    1MMT1    Si  533   0.598   1.645   0.269
    1MMT1    Op  534   0.568   1.377   0.106
    1MMT1    Op  535   0.613   1.651   0.106
    1MMT1  Ohmg  536   0.868   1.549   0.099
    1MMT1    Ob  537   0.737   1.693   0.330
    1MMT1    Ob  538   0.567   1.491   0.330
    1MMT1    Ob  539   0.481   1.745   0.306
    1MMT1     H  540   0.828   1.472   0.143
    1MMT1    Al  541   0.772   1.689   0.000
    1MMT1    Si  542   0.686   0.982  10.082
    1MMT1    Si  543   0.685   1.583  10.081
    1MMT1   Omg  544   0.706   0.955  10.244
    1MMT1    Op  545   0.670   1.577  10.244
    1MMT1  Ohmg  546   0.931   1.679  10.251
    1MMT1    Ob  547   1.062   1.535  10.020
    1MMT1    Ob  548   0.716   1.737  10.021
    1MMT1    Ob  549   0.802   1.484  10.045
    1MMT1     H  550   0.971   1.756  10.208
    1MMT1    Al  551   0.509   1.240   0.000
    1MMT1    Si  552   0.949   1.430  10.082
    1MMT1    Si  553   0.939   1.135  10.081
    1MMT1   Omg  554   0.969   1.403  10.244
    1MMT1   Omg  555   0.923   1.129  10.244
    1MMT1  Ohmg  556   0.668   1.231  10.251
    1MMT1    Ob  557   0.800   1.087  10.020
    1MMT1    Ob  558   0.969   1.289  10.021
    1MMT1    Ob  559   1.055   1.036  10.045
    1MMT1     H  560   0.708   1.308  10.208
    1MMT1   Mgo  561   1.281   1.092   0.000
    1MMT1    Si  562   1.356   0.902   0.268
    1MMT1    Si  563   1.367   1.197   0.269
    1MMT1   Omg  564   1.337   0.929   0.106
    1MMT1   Omg  565   1.382   1.203   0.106
    1MMT1  Ohmg  566   1.122   1.101   0.099
    1MMT1    Ob  567   0.990   1.245   0.330
    1MMT1    Ob  568   1.336   1.043   0.330
    1MMT1    Ob  569   1.250   1.296   0.306
    1MMT1     H  570   1.082   1.024   0.143
    1MMT1   Mgo  571   1.027   1.540   0.000
    1MMT1    Si  572   1.103   1.350   0.268
    1MMT1    Si  573   1.114   1.645   0.269
    1MMT1   Omg  574   1.084   1.377   0.106
    1MMT1   Omg  575   1.129   1.651   0.106
    1MMT1    Oh  576   1.384   1.549   0.099
    1MMT1    Ob  577   1.253   1.693   0.330
    1MMT1    Ob  578   1.083   1.491   0.330
    1MMT1    Ob  579   0.997   1.745   0.306
    1MMT1     H  580   1.344   1.472   0.143
    1MMT1    Al  581   1.288   1.689   0.000
    1MMT1    Si  582   1.202   0.982  10.082
    1MMT1    Si  583   1.201   1.583  10.081
    1MMT1   Omg  584   1.222   0.955  10.244
    1MMT1   Omg  585   1.186   1.577  10.244
    1MMT1    Oh  586   1.447   1.679  10.251
    1MMT1    Ob  587   1.578   1.535  10.020
    1MMT1    Ob  588   1.232   1.737  10.021
    1MMT1    Ob  589   1.318   1.484  10.045
    1MMT1     H  590   1.487   1.756  10.208
    1MMT1    Al  591   1.025   1.240   0.000
    1MMT1    Si  592   1.465   1.430  10.082
    1MMT1    Si  593   1.455   1.135  10.081
    1MMT1    Op  594   1.485   1.403  10.244
    1MMT1   Omg  595   1.439   1.129  10.244
    1MMT1  Ohmg  596   1.184   1.231  10.251
    1MMT1    Ob  597   1.316   1.087  10.020
    1MMT1    Ob  598   1.485   1.289  10.021
    1MMT1    Ob  599   1.571   1.036  10.045
    1MMT1     H  600   1.224   1.308  10.208
    1MMT1    Al  601   1.797   1.092   0.000
    1MMT1    Si  602   1.872   0.902   0.268
    1MMT1    Si  603   1.883   1.197   0.269
    1MMT1   Omg  604   1.853   0.929   0.106
    1MMT1   Omg  605   1.898   1.203   0.106
    1MMT1    Oh  606   1.638   1.101   0.099
    1MMT1    Ob  607   1.506   1.245   0.330
    1MMT1    Ob  608   1.852   1.043   0.330
    1MMT1    Ob  609   1.766   1.296   0.306
    1MMT1     H  610   1.598   1.024   0.143
    1MMT1    Al  611   1.543   1.540   0.000
    1MMT1    Si  612   1.619   1.350   0.268
    1MMT1    Si  613   1.630   1.645   0.269
    1MMT1    Op  614   1.600   1.377   0.106
    1MMT1    Op  615   1.645   1.651   0.106
    1MMT1    Oh  616   1.900   1.549   0.099
    1MMT1    Ob  617   1.769   1.693   0.330
    1MMT1    Ob  618   1.599   1.491   0.330
    1MMT1    Ob  619   1.513   1.745   0.306
    1MMT1     H  620   1.860   1.472   0.143
    1MMT1    Al  621   1.804   1.689   0.000
    1MMT1    Si  622   1.718   0.982  10.082
    1MMT1    Si  623   1.717   1.583  10.081
    1MMT1   Omg  624   1.738   0.955  10.244
    1MMT1    Op  625   1.702   1.577  10.244
    1MMT1    Oh  626   1.963   1.679  10.251
    1MMT1    Ob  627   2.094   1.535  10.020
    1MMT1    Ob  628   1.748   1.737  10.021
    1MMT1    Ob  629   1.834   1.484  10.045
    1MMT1     H  630   2.003   1.756  10.208
    1MMT1    Al  631   1.541   1.240   0.000
    1MMT1    Si  632   1.981   1.430  10.082
    1MMT1    Si  633   1.971   1.135  10.081
    1MMT1   Omg  634   2.001   1.403  10.244
    1MMT1   Omg  635   1.955   1.129  10.244
    1MMT1    Oh  636   1.700   1.231  10.251
    1MMT1    Ob  637   1.832   1.087  10.020
    1MMT1    Ob  638   2.001   1.289  10.021
    1MMT1    Ob  639   2.087   1.036  10.045
    1MMT1     H  640   1.740   1.308  10.208
    1MMT1    Al  641   2.313   1.092   0.000
    1MMT1    Si  642   2.388   0.902   0.268
    1MMT1    Si  643   2.399   1.197   0.269
    1MMT1    Op  644   2.369   0.929   0.106
    1MMT1    Op  645   2.414   1.203   0.106
    1MMT1  Ohmg  646   2.154   1.101   0.099
    1MMT1    Ob  647   2.022   1.245   0.330
    1MMT1    Ob  648   2.368   1.043   0.330
    1MMT1    Ob  649   2.282   1.296   0.306
    1MMT1     H  650   2.114   1.024   0.143
    1MMT1    Al  651   2.059   1.540   0.000
    1MMT1    Si  652   2.135   1.350   0.268
    1MMT1    Si  653   2.146   1.645   0.269
    1MMT1   Omg  654   2.116   1.377   0.106
    1MMT1    Op  655   2.161   1.651   0.106
    1MMT1    Oh  656   2.416   1.549   0.099
    1MMT1    Ob  657   2.285   1.693   0.330
    1MMT1    Ob  658   2.115   1.491   0.330
    1MMT1    Ob  659   2.029   1.745   0.306
    1MMT1     H  660   2.376   1.472   0.143
    1MMT1    Al  661   2.320   1.689   0.000
    1MMT1    Si  662   2.234   0.982  10.082
    1MMT1    Si  663   2.233   1.583  10.081
    1MMT1    Op  664   2.254   0.955  10.244
    1MMT1    Op  665   2.218   1.577  10.244
    1MMT1    Oh  666   2.479   1.679  10.251
    1MMT1    Ob  667   2.610   1.535  10.020
    1MMT1    Ob  668   2.264   1.737  10.021
    1MMT1    Ob  669   2.350   1.484  10.045
    1MMT1     H  670   2.519   1.756  10.208
    1MMT1   Mgo  671   2.057   1.240   0.000
    1MMT1    Si  672   2.497   1.430  10.082
    1MMT1    Si  673   2.487   1.135  10.081
    1MMT1    Op  674   2.517   1.403  10.244
    1MMT1    Op  675   2.471   1.129  10.244
    1MMT1  Ohmg  676   2.216   1.231  10.251
    1MMT1    Ob  677   2.348   1.087  10.020
    1MMT1    Ob  678   2.517   1.289  10.021
    1MMT1    Ob  679   2.603   1.036  10.045
    1MMT1     H  680   2.256   1.308  10.208
    1MMT1    Al  681   2.829   1.092   0.000
    1MMT1    Si  682   2.904   0.902   0.268
    1MMT1    Si  683   2.915   1.197   0.269
    1MMT1    Op  684   2.885   0.929   0.106
    1MMT1   Omg  685   2.930   1.203   0.106
    1MMT1    Oh  686   2.670   1.101   0.099
    1MMT1    Ob  687   2.538   1.245   0.330
    1MMT1    Ob  688   2.884   1.043   0.330
    1MMT1    Ob  689   2.798   1.296   0.306
    1MMT1     H  690   2.630   1.024   0.143
    1MMT1    Al  691   2.575   1.540   0.000
    1MMT1    Si  692   2.651   1.350   0.268
    1MMT1    Si  693   2.662   1.645   0.269
    1MMT1    Op  694   2.632   1.377   0.106
    1MMT1   Omg  695   2.677   1.651   0.106
    1MMT1  Ohmg  696   2.932   1.549   0.099
    1MMT1    Ob  697   2.801   1.693   0.330
    1MMT1    Ob  698   2.631   1.491   0.330
    1MMT1    Ob  699   2.545   1.745   0.306
    1MMT1     H  700   2.892   1.472   0.143
    1MMT1   Mgo  701   2.836   1.689   0.000
    1MMT1    Si  702   2.750   0.982  10.082
    1MMT1    Si  703   2.749   1.583  10.081
    1MMT1    Op  704   2.770   0.955  10.244
    1MMT1   Omg  705   2.734   1.577  10.244
    1MMT1  Ohmg  706   2.995   1.679  10.251
    1MMT1    Ob  707   3.126   1.535  10.020
    1MMT1    Ob  708   2.780   1.737  10.021
    1MMT1    Ob  709   2.866   1.484  10.045
    1MMT1     H  710   3.035   1.756  10.208
    1MMT1    Al  711   2.573   1.240   0.000
    1MMT1    Si  712   3.013   1.430  10.082
    1MMT1    Si  713   3.003   1.135  10.081
    1MMT1   Omg  714   3.033   1.403  10.244
    1MMT1   Omg  715   2.987   1.129  10.244
    1MMT1    Oh  716   2.732   1.231  10.251
    1MMT1    Ob  717   2.864   1.087  10.020
    1MMT1    Ob  718   3.033   1.289  10.021
    1MMT1    Ob  719   3.119   1.036  10.045
    1MMT1     H  720   2.772   1.308  10.208
    1MMT1    Al  721   3.345   1.092   0.000
    1MMT1    Si  722   3.420   0.902   0.268
    1MMT1    Si  723   3.431   1.197   0.269
    1MMT1    Op  724   3.401   0.929   0.106
    1MMT1    Op  725   3.446   1.203   0.106
    1MMT1  Ohmg  726   3.186   1.101   0.099
    1MMT1    Ob  727   3.054   1.245   0.330
    1MMT1    Ob  728   3.400   1.043   0.330
    1MMT1    Ob  729   3.314   1.296   0.306
    1MMT1     H  730   3.146   1.024   0.143
    1MMT1    Al  731   3.091   1.540   0.000
    1MMT1    Si  732   3.167   1.350   0.268
    1MMT1    Si  733   3.178   1.645   0.269
    1MMT1   Omg  734   3.148   1.377   0.106
    1MMT1   Omg  735   3.193   1.651   0.106
    1MMT1  Ohmg  736   3.448   1.549   0.099
    1MMT1    Ob  737   3.317   1.693   0.330
    1MMT1    Ob  738   3.147   1.491   0.330
    1MMT1    Ob  739   3.061   1.745   0.306
    1MMT1     H  740   3.408   1.472   0.143
    1MMT1   Mgo  741   3.352   1.689   0.000
    1MMT1    Si  742   3.266   0.982  10.082
    1MMT1    Si  743   3.265   1.583  10.081
    1MMT1    Op  744   3.286   0.955  10.244
    1MMT1   Omg  745   3.250   1.577  10.244
    1MMT1  Ohmg  746   3.511   1.679  10.251
    1MMT1    Ob  747   3.642   1.535  10.020
    1MMT1    Ob  748   3.296   1.737  10.021
    1MMT1    Ob  749   3.382   1.484  10.045
    1MMT1     H  750   3.551   1.756  10.208
    1MMT1   Mgo  751   3.089   1.240   0.000
    1MMT1    Si  752   3.529   1.430  10.082
    1MMT1    Si  753   3.519   1.135  10.081
    1MMT1    Op  754   3.549   1.403  10.244
    1MMT1    Op  755   3.503   1.129  10.244
    1MMT1  Ohmg  756   3.248   1.231  10.251
    1MMT1    Ob  757   3.380   1.087  10.020
    1MMT1    Ob  758   3.549   1.289  10.021
    1MMT1    Ob  759   3.635   1.036  10.045
    1MMT1     H  760   3.288   1.308  10.208
    1MMT1   Mgo  761   3.861   1.092   0.000
    1MMT1    Si  762   3.936   0.902   0.268
    1MMT1    Si  763   3.947   1.197   0.269
    1MMT1   Omg  764   3.917   0.929   0.106
    1MMT1   Omg  765   3.962   1.203   0.106
    1MMT1  Ohmg  766   3.702   1.101   0.099
    1MMT1    Ob  767   3.570   1.245   0.330
    1MMT1    Ob  768   3.916   1.043   0.330
    1MMT1    Ob  769   3.830   1.296   0.306
    1MMT1     H  770   3.662   1.024   0.143
    1MMT1    Al  771   3.607   1.540   0.000
    1MMT1    Si  772   3.683   1.350   0.268
    1MMT1    Si  773   3.694   1.645   0.269
    1MMT1    Op  774   3.664   1.377   0.106
    1MMT1    Op  775   3.709   1.651   0.106
    1MMT1    Oh  776   3.964   1.549   0.099
    1MMT1    Ob  777   3.833   1.693   0.330
    1MMT1    Ob  778   3.663   1.491   0.330
    1MMT1    Ob  779   3.577   1.745   0.306
    1MMT1     H  780   3.924   1.472   0.143
    1MMT1    Al  781   3.868   1.689   0.000
    1MMT1    Si  782   3.782   0.982  10.082
    1MMT1    Si  783   3.781   1.583  10.081
    1MMT1   Omg  784   3.802   0.955  10.244
    1MMT1    Op  785   3.766   1.577  10.244
    1MMT1    Oh  786   4.027   1.679  10.251
    1MMT1    Ob  787   4.158   1.535  10.020
    1MMT1    Ob  788   3.812   1.737  10.021
    1MMT1    Ob  789   3.898   1.484  10.045
    1MMT1     H  790   4.067   1.756  10.208
    1MMT1    Al  791   3.605   1.240   0.000
    1MMT1    Si  792   4.045   1.430  10.082
    1MMT1    Si  793   4.035   1.135  10.081
    1MMT1    Op  794   4.065   1.403  10.244
    1MMT1   Omg  795   4.019   1.129  10.244
    1MMT1  Ohmg  796   3.764   1.231  10.251
    1MMT1    Ob  797   3.896   1.087  10.020
    1MMT1    Ob  798   4.065   1.289  10.021
    1MMT1    Ob  799   4.151   1.036  10.045
    1MMT1     H  800   3.804   1.308  10.208
    1MMT1    Al  801   4.377   1.092   0.000
    1MMT1    Si  802   4.452   0.902   0.268
    1MMT1    Si  803   4.463   1.197   0.269
    1MMT1    Op  804   4.433   0.929   0.106
    1MMT1   Omg  805   4.478   1.203   0.106
    1MMT1    Oh  806   4.218   1.101   0.099
    1MMT1    Ob  807   4.086   1.245   0.330
    1MMT1    Ob  808   4.432   1.043   0.330
    1MMT1    Ob  809   4.346   1.296   0.306
    1MMT1     H  810   4.178   1.024   0.143
    1MMT1    Al  811   4.123   1.540   0.000
    1MMT1    Si  812   4.199   1.350   0.268
    1MMT1    Si  813   4.210   1.645   0.269
    1MMT1    Op  814   4.180   1.377   0.106
    1MMT1   Omg  815   4.225   1.651   0.106
    1MMT1  Ohmg  816   4.480   1.549   0.099
    1MMT1    Ob  817   4.349   1.693   0.330
    1MMT1    Ob  818   4.179   1.491   0.330
    1MMT1    Ob  819   4.093   1.745   0.306
    1MMT1     H  820   4.440   1.472   0.143
    1MMT1   Mgo  821   4.384   1.689   0.000
    1MMT1    Si  822   4.298   0.982  10.082
    1MMT1    Si  823   4.297   1.583  10.081
    1MMT1    Op  824   4.318   0.955  10.244
    1MMT1   Omg  825   4.282   1.577  10.244
    1MMT1  Ohmg  826   4.543   1.679  10.251
    1MMT1    Ob  827   4.674   1.535  10.020
    1MMT1    Ob  828   4.328   1.737  10.021
    1MMT1    Ob  829   4.414   1.484  10.045
    1MMT1     H  830   4.583   1.756  10.208
    1MMT1    Al  831   4.121   1.240   0.000
    1MMT1    Si  832   4.561   1.430  10.082
    1MMT1    Si  833   4.551   1.135  10.081
    1MMT1   Omg  834   4.581   1.403  10.244
    1MMT1   Omg  835   4.535   1.129  10.244
    1MMT1    Oh  836   4.280   1.231  10.251
    1MMT1    Ob  837   4.412   1.087  10.020
    1MMT1    Ob  838   4.581   1.289  10.021
    1MMT1    Ob  839   4.667   1.036  10.045
    1MMT1     H  840   4.320   1.308  10.208
    1MMT1    Al  841   4.893   1.092   0.000
    1MMT1    Si  842   4.968   0.902   0.268
    1MMT1    Si  843   4.979   1.197   0.269
    1MMT1    Op  844   4.949   0.929   0.106
    1MMT1   Omg  845   4.994   1.203   0.106
    1MMT1  Ohmg  846   4.734   1.101   0.099
    1MMT1    Ob  847   4.602   1.245   0.330
    1MMT1    Ob  848   4.948   1.043   0.330
    1MMT1    Ob  849   4.862   1.296   0.306
    1MMT1     H  850   4.694   1.024   0.143
    1MMT1    Al  851   4.639   1.540   0.000
    1MMT1    Si  852   4.715   1.350   0.268
    1MMT1    Si  853   4.726   1.645   0.269
    1MMT1   Omg  854   4.696   1.377   0.106
    1MMT1    Op  855   4.741   1.651   0.106
    1MMT1    Oh  856   4.996   1.549   0.099
    1MMT1    Ob  857   4.865   1.693   0.330
    1MMT1    Ob  858   4.695   1.491   0.330
    1MMT1    Ob  859   4.609   1.745   0.306
    1MMT1     H  860   4.956   1.472   0.143
    1MMT1    Al  861   4.900   1.689   0.000
    1MMT1    Si  862   4.814   0.982  10.082
    1MMT1    Si  863   4.813   1.583  10.081
    1MMT1    Op  864   4.834   0.955  10.244
    1MMT1    Op  865   4.798   1.577  10.244
    1MMT1    Oh  866   5.059   1.679  10.251
    1MMT1    Ob  867   5.190   1.535  10.020
    1MMT1    Ob  868   4.844   1.737  10.021
    1MMT1    Ob  869   4.930   1.484  10.045
    1MMT1     H  870   5.099   1.756  10.208
    1MMT1   Mgo  871   4.637   1.240   0.000
    1MMT1    Si  872   5.077   1.430  10.082
    1MMT1    Si  873   5.067   1.135  10.081
    1MMT1   Omg  874   5.097   1.403  10.244
    1MMT1   Omg  875   5.051   1.129  10.244
    1MMT1  Ohmg  876   4.796   1.231  10.251
    1MMT1    Ob  877   4.928   1.087  10.020
    1MMT1    Ob  878   5.097   1.289  10.021
    1MMT1    Ob  879   5.183   1.036  10.045
    1MMT1     H  880   4.836   1.308  10.208
    1MMT1    Al  881   5.409   1.092   0.000
    1MMT1    Si  882   5.484   0.902   0.268
    1MMT1    Si  883   5.495   1.197   0.269
    1MMT1   Omg  884   5.465   0.929   0.106
    1MMT1    Op  885   5.510   1.203   0.106
    1MMT1  Ohmg  886   5.250   1.101   0.099
    1MMT1    Ob  887   5.118   1.245   0.330
    1MMT1    Ob  888   5.464   1.043   0.330
    1MMT1    Ob  889   5.378   1.296   0.306
    1MMT1     H  890   5.210   1.024   0.143
    1MMT1    Al  891   5.155   1.540   0.000
    1MMT1    Si  892   5.231   1.350   0.268
    1MMT1    Si  893   5.242   1.645   0.269
    1MMT1   Omg  894   5.212   1.377   0.106
    1MMT1    Op  895   5.257   1.651   0.106
    1MMT1  Ohmg  896   5.512   1.549   0.099
    1MMT1    Ob  897   5.381   1.693   0.330
    1MMT1    Ob  898   5.211   1.491   0.330
    1MMT1    Ob  899   5.125   1.745   0.306
    1MMT1     H  900   5.472   1.472   0.143
    1MMT1    Al  901   5.416   1.689   0.000
    1MMT1    Si  902   5.330   0.982  10.082
    1MMT1    Si  903   5.329   1.583  10.081
    1MMT1   Omg  904   5.350   0.955  10.244
    1MMT1    Op  905   5.314   1.577  10.244
    1MMT1  Ohmg  906   5.575   1.679  10.251
    1MMT1    Ob  907   5.706   1.535  10.020
    1MMT1    Ob  908   5.360   1.737  10.021
    1MMT1    Ob  909   5.446   1.484  10.045
    1MMT1     H  910   5.615   1.756  10.208
    1MMT1   Mgo  911   5.153   1.240   0.000
    1MMT1    Si  912   5.593   1.430  10.082
    1MMT1    Si  913   5.583   1.135  10.081
    1MMT1   Omg  914   5.613   1.403  10.244
    1MMT1    Op  915   5.567   1.129  10.244
    1MMT1  Ohmg  916   5.312   1.231  10.251
    1MMT1    Ob  917   5.444   1.087  10.020
    1MMT1    Ob  918   5.613   1.289  10.021
    1MMT1    Ob  919   5.699   1.036  10.045
    1MMT1     H  920   5.352   1.308  10.208
    1MMT1   Mgo  921   5.925   1.092   0.000
    1MMT1    Si  922   6.000   0.902   0.268
    1MMT1    Si  923   6.011   1.197   0.269
    1MMT1   Omg  924   5.981   0.929   0.106
    1MMT1   Omg  925   6.026   1.203   0.106
    1MMT1  Ohmg  926   5.766   1.101   0.099
    1MMT1    Ob  927   5.634   1.245   0.330
    1MMT1    Ob  928   5.980   1.043   0.330
    1MMT1    Ob  929   5.894   1.296   0.306
    1MMT1     H  930   5.726   1.024   0.143
    1MMT1   Mgo  931   5.671   1.540   0.000
    1MMT1    Si  932   5.747   1.350   0.268
    1MMT1    Si  933   5.758   1.645   0.269
    1MMT1   Omg  934   5.728   1.377   0.106
    1MMT1   Omg  935   5.773   1.651   0.106
    1MMT1  Ohmg  936   6.028   1.549   0.099
    1MMT1    Ob  937   5.897   1.693   0.330
    1MMT1    Ob  938   5.727   1.491   0.330
    1MMT1    Ob  939   5.641   1.745   0.306
    1MMT1     H  940   5.988   1.472   0.143
    1MMT1    Al  941   5.932   1.689   0.000
    1MMT1    Si  942   5.846   0.982  10.082
    1MMT1    Si  943   5.845   1.583  10.081
    1MMT1   Omg  944   5.866   0.955  10.244
    1MMT1   Omg  945   5.830   1.577  10.244
    1MMT1  Ohmg  946   6.091   1.679  10.251
    1MMT1    Ob  947   0.030   1.535  10.020
    1MMT1    Ob  948   5.876   1.737  10.021
    1MMT1    Ob  949   5.962   1.484  10.045
    1MMT1     H  950   6.131   1.756  10.208
    1MMT1    Al  951   5.669   1.240   0.000
    1MMT1    Si  952   6.109   1.430  10.082
    1MMT1    Si  953   6.099   1.135  10.081
    1MMT1   Omg  954   6.129   1.403  10.244
    1MMT1   Omg  955   6.083   1.129  10.244
    1MMT1  Ohmg  956   5.828   1.231  10.251
    1MMT1    Ob  957   5.960   1.087  10.020
    1MMT1    Ob  958   6.129   1.289  10.021
    1MMT1    Ob  959   0.023   1.036  10.045
    1MMT1     H  960   5.868   1.308  10.208
    1MMT1   Mgo  961   0.258   1.988   0.000
    1MMT1    Si  962   0.334   1.799   0.268
    1MMT1    Si  963   0.344   2.093   0.269
    1MMT1   Omg  964   0.315   1.825   0.106
    1MMT1   Omg  965   0.360   2.100   0.106
    1MMT1  Ohmg  966   0.099   1.997   0.099
    1MMT1    Ob  967   6.160   2.142   0.330
    1MMT1    Ob  968   0.314   1.940   0.330
    1MMT1    Ob  969   0.228   2.193   0.306
    1MMT1     H  970   0.059   1.920   0.143
    1MMT1    Al  971   0.005   2.436   0.000
    1MMT1    Si  972   0.081   2.247   0.268
    1MMT1    Si  973   0.091   2.542   0.269
    1MMT1    Op  974   0.061   2.274   0.106
    1MMT1    Op  975   0.107   2.548   0.106
    1MMT1  Ohmg  976   0.362   2.446   0.099
    1MMT1    Ob  977   0.230   2.590   0.330
    1MMT1    Ob  978   0.061   2.388   0.330
    1MMT1    Ob  979   6.167   2.641   0.306
    1MMT1     H  980   0.322   2.369   0.143
    1MMT1    Al  981   0.265   2.585   0.000
    1MMT1    Si  982   0.180   1.878  10.082
    1MMT1    Si  983   0.179   2.480  10.081
    1MMT1   Omg  984   0.199   1.851  10.244
    1MMT1    Op  985   0.164   2.474  10.244
    1MMT1  Ohmg  986   0.424   2.576  10.251
    1MMT1    Ob  987   0.556   2.432  10.020
    1MMT1    Ob  988   0.210   2.634  10.021
    1MMT1    Ob  989   0.295   2.380  10.045
    1MMT1     H  990   0.464   2.653  10.208
    1MMT1    Al  991   0.002   2.137   0.000
    1MMT1    Si  992   0.443   2.326  10.082
    1MMT1    Si  993   0.432   2.032  10.081
    1MMT1   Omg  994   0.462   2.300  10.244
    1MMT1   Omg  995   0.417   2.025  10.244
    1MMT1  Ohmg  996   0.161   2.128  10.251
    1MMT1    Ob  997   0.293   1.984  10.020
    1MMT1    Ob  998   0.463   2.186  10.021
    1MMT1    Ob  999   0.549   1.932  10.045
    1MMT1     H 1000   0.201   2.205  10.208
    1MMT1    Al 1001   0.774   1.988   0.000
    1MMT1    Si 1002   0.850   1.799   0.268
    1MMT1    Si 1003   0.860   2.093   0.269
    1MMT1    Op 1004   0.831   1.825   0.106
    1MMT1   Omg 1005   0.876   2.100   0.106
    1MMT1    Oh 1006   0.615   1.997   0.099
    1MMT1    Ob 1007   0.484   2.142   0.330
    1MMT1    Ob 1008   0.830   1.940   0.330
    1MMT1    Ob 1009   0.744   2.193   0.306
    1MMT1     H 1010   0.575   1.920   0.143
    1MMT1   Mgo 1011   0.521   2.436   0.000
    1MMT1    Si 1012   0.597   2.247   0.268
    1MMT1    Si 1013   0.607   2.542   0.269
    1MMT1   Omg 1014   0.577   2.274   0.106
    1MMT1   Omg 1015   0.623   2.548   0.106
    1MMT1    Oh 1016   0.878   2.446   0.099
    1MMT1    Ob 1017   0.746   2.590   0.330
    1MMT1    Ob 1018   0.577   2.388   0.330
    1MMT1    Ob 1019   0.491   2.641   0.306
    1MMT1     H 1020   0.838   2.369   0.143
    1MMT1    Al 1021   0.781   2.585   0.000
    1MMT1    Si 1022   0.696   1.878  10.082
    1MMT1    Si 1023   0.695   2.480  10.081
    1MMT1    Op 1024   0.715   1.851  10.244
    1MMT1   Omg 1025   0.680   2.474  10.244
    1MMT1    Oh 1026   0.940   2.576  10.251
    1MMT1    Ob 1027   1.072   2.432  10.020
    1MMT1    Ob 1028   0.726   2.634  10.021
    1MMT1    Ob 1029   0.811   2.380  10.045
    1MMT1     H 1030   0.980   2.653  10.208
    1MMT1    Al 1031   0.518   2.137   0.000
    1MMT1    Si 1032   0.959   2.326  10.082
    1MMT1    Si 1033   0.948   2.032  10.081
    1MMT1   Omg 1034   0.978   2.300  10.244
    1MMT1   Omg 1035   0.933   2.025  10.244
    1MMT1    Oh 1036   0.677   2.128  10.251
    1MMT1    Ob 1037   0.809   1.984  10.020
    1MMT1    Ob 1038   0.979   2.186  10.021
    1MMT1    Ob 1039   1.065   1.932  10.045
    1MMT1     H 1040   0.717   2.205  10.208
    1MMT1    Al 1041   1.290   1.988   0.000
    1MMT1    Si 1042   1.366   1.799   0.268
    1MMT1    Si 1043   1.376   2.093   0.269
    1MMT1    Op 1044   1.347   1.825   0.106
    1MMT1    Op 1045   1.392   2.100   0.106
    1MMT1  Ohmg 1046   1.131   1.997   0.099
    1MMT1    Ob 1047   1.000   2.142   0.330
    1MMT1    Ob 1048   1.346   1.940   0.330
    1MMT1    Ob 1049   1.260   2.193   0.306
    1MMT1     H 1050   1.091   1.920   0.143
    1MMT1    Al 1051   1.037   2.436   0.000
    1MMT1    Si 1052   1.113   2.247   0.268
    1MMT1    Si 1053   1.123   2.542   0.269
    1MMT1   Omg 1054   1.093   2.274   0.106
    1MMT1    Op 1055   1.139   2.548   0.106
    1MMT1    Oh 1056   1.394   2.446   0.099
    1MMT1    Ob 1057   1.262   2.590   0.330
    1MMT1    Ob 1058   1.093   2.388   0.330
    1MMT1    Ob 1059   1.007   2.641   0.306
    1MMT1     H 1060   1.354   2.369   0.143
    1MMT1    Al 1061   1.297   2.585   0.000
    1MMT1    Si 1062   1.212   1.878  10.082
    1MMT1    Si 1063   1.211   2.480  10.081
    1MMT1    Op 1064   1.231   1.851  10.244
    1MMT1    Op 1065   1.196   2.474  10.244
    1MMT1    Oh 1066   1.456   2.576  10.251
    1MMT1    Ob 1067   1.588   2.432  10.020
    1MMT1    Ob 1068   1.242   2.634  10.021
    1MMT1    Ob 1069   1.327   2.380  10.045
    1MMT1     H 1070   1.496   2.653  10.208
    1MMT1   Mgo 1071   1.034   2.137   0.000
    1MMT1    Si 1072   1.475   2.326  10.082
    1MMT1    Si 1073   1.464   2.032  10.081
    1MMT1    Op 1074   1.494   2.300  10.244
    1MMT1    Op 1075   1.449   2.025  10.244
    1MMT1  Ohmg 1076   1.193   2.128  10.251
    1MMT1    Ob 1077   1.325   1.984  10.020
    1MMT1    Ob 1078   1.495   2.186  10.021
    1MMT1    Ob 1079   1.581   1.932  10.045
    1MMT1     H 1080   1.233   2.205  10.208
    1MMT1    Al 1081   1.806   1.988   0.000
    1MMT1    Si 1082   1.882   1.799   0.268
    1MMT1    Si 1083   1.892   2.093   0.269
    1MMT1    Op 1084   1.863   1.825   0.106
    1MMT1   Omg 1085   1.908   2.100   0.106
    1MMT1    Oh 1086   1.647   1.997   0.099
    1MMT1    Ob 1087   1.516   2.142   0.330
    1MMT1    Ob 1088   1.862   1.940   0.330
    1MMT1    Ob 1089   1.776   2.193   0.306
    1MMT1     H 1090   1.607   1.920   0.143
    1MMT1    Al 1091   1.553   2.436   0.000
    1MMT1    Si 1092   1.629   2.247   0.268
    1MMT1    Si 1093   1.639   2.542   0.269
    1MMT1    Op 1094   1.609   2.274   0.106
    1MMT1    Op 1095   1.655   2.548   0.106
    1MMT1    Oh 1096   1.910   2.446   0.099
    1MMT1    Ob 1097   1.778   2.590   0.330
    1MMT1    Ob 1098   1.609   2.388   0.330
    1MMT1    Ob 1099   1.523   2.641   0.306
    1MMT1     H 1100   1.870   2.369   0.143
    1MMT1    Al 1101   1.813   2.585   0.000
    1MMT1    Si 1102   1.728   1.878  10.082
    1MMT1    Si 1103   1.727   2.480  10.081
    1MMT1    Op 1104   1.747   1.851  10.244
    1MMT1    Op 1105   1.712   2.474  10.244
    1MMT1    Oh 1106   1.972   2.576  10.251
    1MMT1    Ob 1107   2.104   2.432  10.020
    1MMT1    Ob 1108   1.758   2.634  10.021
    1MMT1    Ob 1109   1.843   2.380  10.045
    1MMT1     H 1110   2.012   2.653  10.208
    1MMT1    Al 1111   1.550   2.137   0.000
    1MMT1    Si 1112   1.991   2.326  10.082
    1MMT1    Si 1113   1.980   2.032  10.081
    1MMT1   Omg 1114   2.010   2.300  10.244
    1MMT1   Omg 1115   1.965   2.025  10.244
    1MMT1    Oh 1116   1.709   2.128  10.251
    1MMT1    Ob 1117   1.841   1.984  10.020
    1MMT1    Ob 1118   2.011   2.186  10.021
    1MMT1    Ob 1119   2.097   1.932  10.045
    1MMT1     H 1120   1.749   2.205  10.208
    1MMT1    Al 1121   2.322   1.988   0.000
    1MMT1    Si 1122   2.398   1.799   0.268
    1MMT1    Si 1123   2.408   2.093   0.269
    1MMT1    Op 1124   2.379   1.825   0.106
    1MMT1    Op 1125   2.424   2.100   0.106
    1MMT1  Ohmg 1126   2.163   1.997   0.099
    1MMT1    Ob 1127   2.032   2.142   0.330
    1MMT1    Ob 1128   2.378   1.940   0.330
    1MMT1    Ob 1129   2.292   2.193   0.306
    1MMT1     H 1130   2.123   1.920   0.143
    1MMT1    Al 1131   2.069   2.436   0.000
    1MMT1    Si 1132   2.145   2.247   0.268
    1MMT1    Si 1133   2.155   2.542   0.269
    1MMT1   Omg 1134   2.125   2.274   0.106
    1MMT1   Omg 1135   2.171   2.548   0.106
    1MMT1  Ohmg 1136   2.426   2.446   0.099
    1MMT1    Ob 1137   2.294   2.590   0.330
    1MMT1    Ob 1138   2.125   2.388   0.330
    1MMT1    Ob 1139   2.039   2.641   0.306
    1MMT1     H 1140   2.386   2.369   0.143
    1MMT1   Mgo 1141   2.329   2.585   0.000
    1MMT1    Si 1142   2.244   1.878  10.082
    1MMT1    Si 1143   2.243   2.480  10.081
    1MMT1    Op 1144   2.263   1.851  10.244
    1MMT1   Omg 1145   2.228   2.474  10.244
    1MMT1  Ohmg 1146   2.488   2.576  10.251
    1MMT1    Ob 1147   2.620   2.432  10.020
    1MMT1    Ob 1148   2.274   2.634  10.021
    1MMT1    Ob 1149   2.359   2.380  10.045
    1MMT1     H 1150   2.528   2.653  10.208
    1MMT1   Mgo 1151   2.066   2.137   0.000
    1MMT1    Si 1152   2.507   2.326  10.082
    1MMT1    Si 1153   2.496   2.032  10.081
    1MMT1    Op 1154   2.526   2.300  10.244
    1MMT1    Op 1155   2.481   2.025  10.244
    1MMT1  Ohmg 1156   2.225   2.128  10.251
    1MMT1    Ob 1157   2.357   1.984  10.020
    1MMT1    Ob 1158   2.527   2.186  10.021
    1MMT1    Ob 1159   2.613   1.932  10.045
    1MMT1     H 1160   2.265   2.205  10.208
    1MMT1    Al 1161   2.838   1.988   0.000
    1MMT1    Si 1162   2.914   1.799   0.268
    1MMT1    Si 1163   2.924   2.093   0.269
    1MMT1   Omg 1164   2.895   1.825   0.106
    1MMT1    Op 1165   2.940   2.100   0.106
    1MMT1    Oh 1166   2.679   1.997   0.099
    1MMT1    Ob 1167   2.548   2.142   0.330
    1MMT1    Ob 1168   2.894   1.940   0.330
    1MMT1    Ob 1169   2.808   2.193   0.306
    1MMT1     H 1170   2.639   1.920   0.143
    1MMT1    Al 1171   2.585   2.436   0.000
    1MMT1    Si 1172   2.661   2.247   0.268
    1MMT1    Si 1173   2.671   2.542   0.269
    1MMT1    Op 1174   2.641   2.274   0.106
    1MMT1   Omg 1175   2.687   2.548   0.106
    1MMT1  Ohmg 1176   2.942   2.446   0.099
    1MMT1    Ob 1177   2.810   2.590   0.330
    1MMT1    Ob 1178   2.641   2.388   0.330
    1MMT1    Ob 1179   2.555   2.641   0.306
    1MMT1     H 1180   2.902   2.369   0.143
    1MMT1   Mgo 1181   2.845   2.585   0.000
    1MMT1    Si 1182   2.760   1.878  10.082
    1MMT1    Si 1183   2.759   2.480  10.081
    1MMT1   Omg 1184   2.779   1.851  10.244
    1MMT1   Omg 1185   2.744   2.474  10.244
    1MMT1  Ohmg 1186   3.004   2.576  10.251
    1MMT1    Ob 1187   3.136   2.432  10.020
    1MMT1    Ob 1188   2.790   2.634  10.021
    1MMT1    Ob 1189   2.875   2.380  10.045
    1MMT1     H 1190   3.044   2.653  10.208
    1MMT1    Al 1191   2.582   2.137   0.000
    1MMT1    Si 1192   3.023   2.326  10.082
    1MMT1    Si 1193   3.012   2.032  10.081
    1MMT1    Op 1194   3.042   2.300  10.244
    1MMT1    Op 1195   2.997   2.025  10.244
    1MMT1    Oh 1196   2.741   2.128  10.251
    1MMT1    Ob 1197   2.873   1.984  10.020
    1MMT1    Ob 1198   3.043   2.186  10.021
    1MMT1    Ob 1199   3.129   1.932  10.045
    1MMT1     H 1200   2.781   2.205  10.208
    1MMT1    Al 1201   3.354   1.988   0.000
    1MMT1    Si 1202   3.430   1.799   0.268
    1MMT1    Si 1203   3.440   2.093   0.269
    1MMT1   Omg 1204   3.411   1.825   0.106
    1MMT1    Op 1205   3.456   2.100   0.106
    1MMT1    Oh 1206   3.195   1.997   0.099
    1MMT1    Ob 1207   3.064   2.142   0.330
    1MMT1    Ob 1208   3.410   1.940   0.330
    1MMT1    Ob 1209   3.324   2.193   0.306
    1MMT1     H 1210   3.155   1.920   0.143
    1MMT1    Al 1211   3.101   2.436   0.000
    1MMT1    Si 1212   3.177   2.247   0.268
    1MMT1    Si 1213   3.187   2.542   0.269
    1MMT1    Op 1214   3.157   2.274   0.106
    1MMT1   Omg 1215   3.203   2.548   0.106
    1MMT1  Ohmg 1216   3.458   2.446   0.099
    1MMT1    Ob 1217   3.326   2.590   0.330
    1MMT1    Ob 1218   3.157   2.388   0.330
    1MMT1    Ob 1219   3.071   2.641   0.306
    1MMT1     H 1220   3.418   2.369   0.143
    1MMT1   Mgo 1221   3.361   2.585   0.000
    1MMT1    Si 1222   3.276   1.878  10.082
    1MMT1    Si 1223   3.275   2.480  10.081
    1MMT1   Omg 1224   3.295   1.851  10.244
    1MMT1   Omg 1225   3.260   2.474  10.244
    1MMT1  Ohmg 1226   3.520   2.576  10.251
    1MMT1    Ob 1227   3.652   2.432  10.020
    1MMT1    Ob 1228   3.306   2.634  10.021
    1MMT1    Ob 1229   3.391   2.380  10.045
    1MMT1     H 1230   3.560   2.653  10.208
    1MMT1    Al 1231   3.098   2.137   0.000
    1MMT1    Si 1232   3.539   2.326  10.082
    1MMT1    Si 1233   3.528   2.032  10.081
    1MMT1    Op 1234   3.558   2.300  10.244
    1MMT1    Op 1235   3.513   2.025  10.244
    1MMT1    Oh 1236   3.257   2.128  10.251
    1MMT1    Ob 1237   3.389   1.984  10.020
    1MMT1    Ob 1238   3.559   2.186  10.021
    1MMT1    Ob 1239   3.645   1.932  10.045
    1MMT1     H 1240   3.297   2.205  10.208
    1MMT1    Al 1241   3.870   1.988   0.000
    1MMT1    Si 1242   3.946   1.799   0.268
    1MMT1    Si 1243   3.956   2.093   0.269
    1MMT1    Op 1244   3.927   1.825   0.106
    1MMT1   Omg 1245   3.972   2.100   0.106
    1MMT1    Oh 1246   3.711   1.997   0.099
    1MMT1    Ob 1247   3.580   2.142   0.330
    1MMT1    Ob 1248   3.926   1.940   0.330
    1MMT1    Ob 1249   3.840   2.193   0.306
    1MMT1     H 1250   3.671   1.920   0.143
    1MMT1    Al 1251   3.617   2.436   0.000
    1MMT1    Si 1252   3.693   2.247   0.268
    1MMT1    Si 1253   3.703   2.542   0.269
    1MMT1    Op 1254   3.673   2.274   0.106
    1MMT1    Op 1255   3.719   2.548   0.106
    1MMT1    Oh 1256   3.974   2.446   0.099
    1MMT1    Ob 1257   3.842   2.590   0.330
    1MMT1    Ob 1258   3.673   2.388   0.330
    1MMT1    Ob 1259   3.587   2.641   0.306
    1MMT1     H 1260   3.934   2.369   0.143
    1MMT1    Al 1261   3.877   2.585   0.000
    1MMT1    Si 1262   3.792   1.878  10.082
    1MMT1    Si 1263   3.791   2.480  10.081
    1MMT1    Op 1264   3.811   1.851  10.244
    1MMT1    Op 1265   3.776   2.474  10.244
    1MMT1    Oh 1266   4.036   2.576  10.251
    1MMT1    Ob 1267   4.168   2.432  10.020
    1MMT1    Ob 1268   3.822   2.634  10.021
    1MMT1    Ob 1269   3.907   2.380  10.045
    1MMT1     H 1270   4.076   2.653  10.208
    1MMT1    Al 1271   3.614   2.137   0.000
    1MMT1    Si 1272   4.055   2.326  10.082
    1MMT1    Si 1273   4.044   2.032  10.081
    1MMT1   Omg 1274   4.074   2.300  10.244
    1MMT1   Omg 1275   4.029   2.025  10.244
    1MMT1    Oh 1276   3.773   2.128  10.251
    1MMT1    Ob 1277   3.905   1.984  10.020
    1MMT1    Ob 1278   4.075   2.186  10.021
    1MMT1    Ob 1279   4.161   1.932  10.045
    1MMT1     H 1280   3.813   2.205  10.208
    1MMT1    Al 1281   4.386   1.988   0.000
    1MMT1    Si 1282   4.462   1.799   0.268
    1MMT1    Si 1283   4.472   2.093   0.269
    1MMT1   Omg 1284   4.443   1.825   0.106
    1MMT1    Op 1285   4.488   2.100   0.106
    1MMT1  Ohmg 1286   4.227   1.997   0.099
    1MMT1    Ob 1287   4.096   2.142   0.330
    1MMT1    Ob 1288   4.442   1.940   0.330
    1MMT1    Ob 1289   4.356   2.193   0.306
    1MMT1     H 1290   4.187   1.920   0.143
    1MMT1    Al 1291   4.133   2.436   0.000
    1MMT1    Si 1292   4.209   2.247   0.268
    1MMT1    Si 1293   4.219   2.542   0.269
    1MMT1   Omg 1294   4.189   2.274   0.106
    1MMT1    Op 1295   4.235   2.548   0.106
    1MMT1  Ohmg 1296   4.490   2.446   0.099
    1MMT1    Ob 1297   4.358   2.590   0.330
    1MMT1    Ob 1298   4.189   2.388   0.330
    1MMT1    Ob 1299   4.103   2.641   0.306
    1MMT1     H 1300   4.450   2.369   0.143
    1MMT1    Al 1301   4.393   2.585   0.000
    1MMT1    Si 1302   4.308   1.878  10.082
    1MMT1    Si 1303   4.307   2.480  10.081
    1MMT1   Omg 1304   4.327   1.851  10.244
    1MMT1    Op 1305   4.292   2.474  10.244
    1MMT1  Ohmg 1306   4.552   2.576  10.251
    1MMT1    Ob 1307   4.684   2.432  10.020
    1MMT1    Ob 1308   4.338   2.634  10.021
    1MMT1    Ob 1309   4.423   2.380  10.045
    1MMT1     H 1310   4.592   2.653  10.208
    1MMT1   Mgo 1311   4.130   2.137   0.000
    1MMT1    Si 1312   4.571   2.326  10.082
    1MMT1    Si 1313   4.560   2.032  10.081
    1MMT1   Omg 1314   4.590   2.300  10.244
    1MMT1    Op 1315   4.545   2.025  10.244
    1MMT1  Ohmg 1316   4.289   2.128  10.251
    1MMT1    Ob 1317   4.421   1.984  10.020
    1MMT1    Ob 1318   4.591   2.186  10.021
    1MMT1    Ob 1319   4.677   1.932  10.045
    1MMT1     H 1320   4.329   2.205  10.208
    1MMT1    Al 1321   4.902   1.988   0.000
    1MMT1    Si 1322   4.978   1.799   0.268
    1MMT1    Si 1323   4.988   2.093   0.269
    1MMT1    Op 1324   4.959   1.825   0.106
    1MMT1    Op 1325   5.004   2.100   0.106
    1MMT1    Oh 1326   4.743   1.997   0.099
    1MMT1    Ob 1327   4.612   2.142   0.330
    1MMT1    Ob 1328   4.958   1.940   0.330
    1MMT1    Ob 1329   4.872   2.193   0.306
    1MMT1     H 1330   4.703   1.920   0.143
    1MMT1   Mgo 1331   4.649   2.436   0.000
    1MMT1    Si 1332   4.725   2.247   0.268
    1MMT1    Si 1333   4.735   2.542   0.269
    1MMT1   Omg 1334   4.705   2.274   0.106
    1MMT1   Omg 1335   4.751   2.548   0.106
    1MMT1    Oh 1336   5.006   2.446   0.099
    1MMT1    Ob 1337   4.874   2.590   0.330
    1MMT1    Ob 1338   4.705   2.388   0.330
    1MMT1    Ob 1339   4.619   2.641   0.306
    1MMT1     H 1340   4.966   2.369   0.143
    1MMT1    Al 1341   4.909   2.585   0.000
    1MMT1    Si 1342   4.824   1.878  10.082
    1MMT1    Si 1343   4.823   2.480  10.081
    1MMT1    Op 1344   4.843   1.851  10.244
    1MMT1   Omg 1345   4.808   2.474  10.244
    1MMT1    Oh 1346   5.068   2.576  10.251
    1MMT1    Ob 1347   5.200   2.432  10.020
    1MMT1    Ob 1348   4.854   2.634  10.021
    1MMT1    Ob 1349   4.939   2.380  10.045
    1MMT1     H 1350   5.108   2.653  10.208
    1MMT1    Al 1351   4.646   2.137   0.000
    1MMT1    Si 1352   5.087   2.326  10.082
    1MMT1    Si 1353   5.076   2.032  10.081
    1MMT1    Op 1354   5.106   2.300  10.244
    1MMT1    Op 1355   5.061   2.025  10.244
    1MMT1    Oh 1356   4.805   2.128  10.251
    1MMT1    Ob 1357   4.937   1.984  10.020
    1MMT1    Ob 1358   5.107   2.186  10.021
    1MMT1    Ob 1359   5.193   1.932  10.045
    1MMT1     H 1360   4.845   2.205  10.208
    1MMT1    Al 1361   5.418   1.988   0.000
    1MMT1    Si 1362   5.494   1.799   0.268
    1MMT1    Si 1363   5.504   2.093   0.269
    1MMT1    Op 1364   5.475   1.825   0.106
    1MMT1    Op 1365   5.520   2.100   0.106
    1MMT1    Oh 1366   5.259   1.997   0.099
    1MMT1    Ob 1367   5.128   2.142   0.330
    1MMT1    Ob 1368   5.474   1.940   0.330
    1MMT1    Ob 1369   5.388   2.193   0.306
    1MMT1     H 1370   5.219   1.920   0.143
    1MMT1    Al 1371   5.165   2.436   0.000
    1MMT1    Si 1372   5.241   2.247   0.268
    1MMT1    Si 1373   5.251   2.542   0.269
    1MMT1    Op 1374   5.221   2.274   0.106
    1MMT1    Op 1375   5.267   2.548   0.106
    1MMT1  Ohmg 1376   5.522   2.446   0.099
    1MMT1    Ob 1377   5.390   2.590   0.330
    1MMT1    Ob 1378   5.221   2.388   0.330
    1MMT1    Ob 1379   5.135   2.641   0.306
    1MMT1     H 1380   5.482   2.369   0.143
    1MMT1    Al 1381   5.425   2.585   0.000
    1MMT1    Si 1382   5.340   1.878  10.082
    1MMT1    Si 1383   5.339   2.480  10.081
    1MMT1    Op 1384   5.359   1.851  10.244
    1MMT1    Op 1385   5.324   2.474  10.244
    1MMT1  Ohmg 1386   5.584   2.576  10.251
    1MMT1    Ob 1387   5.716   2.432  10.020
    1MMT1    Ob 1388   5.370   2.634  10.021
    1MMT1    Ob 1389   5.455   2.380  10.045
    1MMT1     H 1390   5.624   2.653  10.208
    1MMT1    Al 1391   5.162   2.137   0.000
    1MMT1    Si 1392   5.603   2.326  10.082
    1MMT1    Si 1393   5.592   2.032  10.081
    1MMT1   Omg 1394   5.622   2.300  10.244
    1MMT1    Op 1395   5.577   2.025  10.244
    1MMT1    Oh 1396   5.321   2.128  10.251
    1MMT1    Ob 1397   5.453   1.984  10.020
    1MMT1    Ob 1398   5.623   2.186  10.021
    1MMT1    Ob 1399   5.709   1.932  10.045
    1MMT1     H 1400   5.361   2.205  10.208
    1MMT1    Al 1401   5.934   1.988   0.000
    1MMT1    Si 1402   6.010   1.799   0.268
    1MMT1    Si 1403   6.020   2.093   0.269
    1MMT1    Op 1404   5.991   1.825   0.106
    1MMT1    Op 1405   6.036   2.100   0.106
    1MMT1    Oh 1406   5.775   1.997   0.099
    1MMT1    Ob 1407   5.644   2.142   0.330
    1MMT1    Ob 1408   5.990   1.940   0.330
    1MMT1    Ob 1409   5.904   2.193   0.306
    1MMT1     H 1410   5.735   1.920   0.143
    1MMT1   Mgo 1411   5.681   2.436   0.000
    1MMT1    Si 1412   5.757   2.247   0.268
    1MMT1    Si 1413   5.767   2.542   0.269
    1MMT1   Omg 1414   5.737   2.274   0.106
    1MMT1   Omg 1415   5.783   2.548   0.106
    1MMT1    Oh 1416   6.038   2.446   0.099
    1MMT1    Ob 1417   5.906   2.590   0.330
    1MMT1    Ob 1418   5.737   2.388   0.330
    1MMT1    Ob 1419   5.651   2.641   0.306
    1MMT1     H 1420   5.998   2.369   0.143
    1MMT1    Al 1421   5.941   2.585   0.000
    1MMT1    Si 1422   5.856   1.878  10.082
    1MMT1    Si 1423   5.855   2.480  10.081
    1MMT1    Op 1424   5.875   1.851  10.244
    1MMT1   Omg 1425   5.840   2.474  10.244
    1MMT1    Oh 1426   6.100   2.576  10.251
    1MMT1    Ob 1427   0.040   2.432  10.020
    1MMT1    Ob 1428   5.886   2.634  10.021
    1MMT1    Ob 1429   5.971   2.380  10.045
    1MMT1     H 1430   6.140   2.653  10.208
    1MMT1    Al 1431   5.678   2.137   0.000
    1MMT1    Si 1432   6.119   2.326  10.082
    1MMT1    Si 1433   6.108   2.032  10.081
    1MMT1    Op 1434   6.138   2.300  10.244
    1MMT1    Op 1435   6.093   2.025  10.244
    1MMT1    Oh 1436   5.837   2.128  10.251
    1MMT1    Ob 1437   5.969   1.984  10.020
    1MMT1    Ob 1438   6.139   2.186  10.021
    1MMT1    Ob 1439   0.033   1.932  10.045
    1MMT1     H 1440   5.877   2.205  10.208
    1MMT1   Mgo 1441   0.268   2.885   0.000
    1MMT1    Si 1442   0.343   2.695   0.268
    1MMT1    Si 1443   0.354   2.990   0.269
    1MMT1   Omg 1444   0.324   2.722   0.106
    1MMT1   Omg 1445   0.369   2.996   0.106
    1MMT1  Ohmg 1446   0.109   2.894   0.099
    1MMT1    Ob 1447   6.169   3.038   0.330
    1MMT1    Ob 1448   0.324   2.836   0.330
    1MMT1    Ob 1449   0.238   3.089   0.306
    1MMT1     H 1450   0.069   2.817   0.143
    1MMT1   Mgo 1451   0.015   3.333   0.000
    1MMT1    Si 1452   0.090   3.143   0.268
    1MMT1    Si 1453   0.101   3.438   0.269
    1MMT1   Omg 1454   0.071   3.170   0.106
    1MMT1   Omg 1455   0.116   3.445   0.106
    1MMT1  Ohmg 1456   0.372   3.342   0.099
    1MMT1    Ob 1457   0.240   3.486   0.330
    1MMT1    Ob 1458   0.070   3.284   0.330
    1MMT1    Ob 1459   6.177   3.538   0.306
    1MMT1     H 1460   0.332   3.265   0.143
    1MMT1    Al 1461   0.275   3.482   0.000
    1MMT1    Si 1462   0.190   2.775  10.082
    1MMT1    Si 1463   0.189   3.377  10.081
    1MMT1   Omg 1464   0.209   2.748  10.244
    1MMT1   Omg 1465   0.174   3.370  10.244
    1MMT1  Ohmg 1466   0.434   3.473  10.251
    1MMT1    Ob 1467   0.566   3.328  10.020
    1MMT1    Ob 1468   0.219   3.530  10.021
    1MMT1    Ob 1469   0.305   3.277  10.045
    1MMT1     H 1470   0.474   3.550  10.208
    1MMT1    Al 1471   0.012   3.033   0.000
    1MMT1    Si 1472   0.453   3.223  10.082
    1MMT1    Si 1473   0.442   2.928  10.081
    1MMT1   Omg 1474   0.472   3.196  10.244
    1MMT1   Omg 1475   0.427   2.922  10.244
    1MMT1  Ohmg 1476   0.171   3.024  10.251
    1MMT1    Ob 1477   0.303   2.880  10.020
    1MMT1    Ob 1478   0.473   3.082  10.021
    1MMT1    Ob 1479   0.558   2.829  10.045
    1MMT1     H 1480   0.211   3.101  10.208
    1MMT1   Mgo 1481   0.784   2.885   0.000
    1MMT1    Si 1482   0.859   2.695   0.268
    1MMT1    Si 1483   0.870   2.990   0.269
    1MMT1   Omg 1484   0.840   2.722   0.106
    1MMT1   Omg 1485   0.885   2.996   0.106
    1MMT1  Ohmg 1486   0.625   2.894   0.099
    1MMT1    Ob 1487   0.493   3.038   0.330
    1MMT1    Ob 1488   0.840   2.836   0.330
    1MMT1    Ob 1489   0.754   3.089   0.306
    1MMT1     H 1490   0.585   2.817   0.143
    1MMT1   Mgo 1491   0.531   3.333   0.000
    1MMT1    Si 1492   0.606   3.143   0.268
    1MMT1    Si 1493   0.617   3.438   0.269
    1MMT1   Omg 1494   0.587   3.170   0.106
    1MMT1   Omg 1495   0.632   3.445   0.106
    1MMT1    Oh 1496   0.888   3.342   0.099
    1MMT1    Ob 1497   0.756   3.486   0.330
    1MMT1    Ob 1498   0.586   3.284   0.330
    1MMT1    Ob 1499   0.501   3.538   0.306
    1MMT1     H 1500   0.848   3.265   0.143
    1MMT1    Al 1501   0.791   3.482   0.000
    1MMT1    Si 1502   0.706   2.775  10.082
    1MMT1    Si 1503   0.705   3.377  10.081
    1MMT1   Omg 1504   0.725   2.748  10.244
    1MMT1   Omg 1505   0.690   3.370  10.244
    1MMT1    Oh 1506   0.950   3.473  10.251
    1MMT1    Ob 1507   1.082   3.328  10.020
    1MMT1    Ob 1508   0.735   3.530  10.021
    1MMT1    Ob 1509   0.821   3.277  10.045
    1MMT1     H 1510   0.990   3.550  10.208
    1MMT1    Al 1511   0.528   3.033   0.000
    1MMT1    Si 1512   0.969   3.223  10.082
    1MMT1    Si 1513   0.958   2.928  10.081
    1MMT1    Op 1514   0.988   3.196  10.244
    1MMT1   Omg 1515   0.943   2.922  10.244
    1MMT1  Ohmg 1516   0.687   3.024  10.251
    1MMT1    Ob 1517   0.819   2.880  10.020
    1MMT1    Ob 1518   0.989   3.082  10.021
    1MMT1    Ob 1519   1.074   2.829  10.045
    1MMT1     H 1520   0.727   3.101  10.208
    1MMT1   Mgo 1521   1.300   2.885   0.000
    1MMT1    Si 1522   1.375   2.695   0.268
    1MMT1    Si 1523   1.386   2.990   0.269
    1MMT1   Omg 1524   1.356   2.722   0.106
    1MMT1   Omg 1525   1.401   2.996   0.106
    1MMT1  Ohmg 1526   1.141   2.894   0.099
    1MMT1    Ob 1527   1.009   3.038   0.330
    1MMT1    Ob 1528   1.356   2.836   0.330
    1MMT1    Ob 1529   1.270   3.089   0.306
    1MMT1     H 1530   1.101   2.817   0.143
    1MMT1    Al 1531   1.047   3.333   0.000
    1MMT1    Si 1532   1.122   3.143   0.268
    1MMT1    Si 1533   1.133   3.438   0.269
    1MMT1    Op 1534   1.103   3.170   0.106
    1MMT1    Op 1535   1.148   3.445   0.106
    1MMT1    Oh 1536   1.404   3.342   0.099
    1MMT1    Ob 1537   1.272   3.486   0.330
    1MMT1    Ob 1538   1.102   3.284   0.330
    1MMT1    Ob 1539   1.017   3.538   0.306
    1MMT1     H 1540   1.364   3.265   0.143
    1MMT1    Al 1541   1.307   3.482   0.000
    1MMT1    Si 1542   1.222   2.775  10.082
    1MMT1    Si 1543   1.221   3.377  10.081
    1MMT1   Omg 1544   1.241   2.748  10.244
    1MMT1    Op 1545   1.206   3.370  10.244
    1MMT1    Oh 1546   1.466   3.473  10.251
    1MMT1    Ob 1547   1.598   3.328  10.020
    1MMT1    Ob 1548   1.251   3.530  10.021
    1MMT1    Ob 1549   1.337   3.277  10.045
    1MMT1     H 1550   1.506   3.550  10.208
    1MMT1    Al 1551   1.044   3.033   0.000
    1MMT1    Si 1552   1.485   3.223  10.082
    1MMT1    Si 1553   1.474   2.928  10.081
    1MMT1    Op 1554   1.504   3.196  10.244
    1MMT1   Omg 1555   1.459   2.922  10.244
    1MMT1  Ohmg 1556   1.203   3.024  10.251
    1MMT1    Ob 1557   1.335   2.880  10.020
    1MMT1    Ob 1558   1.505   3.082  10.021
    1MMT1    Ob 1559   1.590   2.829  10.045
    1MMT1     H 1560   1.243   3.101  10.208
    1MMT1    Al 1561   1.816   2.885   0.000
    1MMT1    Si 1562   1.891   2.695   0.268
    1MMT1    Si 1563   1.902   2.990   0.269
    1MMT1    Op 1564   1.872   2.722   0.106
    1MMT1    Op 1565   1.917   2.996   0.106
    1MMT1    Oh 1566   1.657   2.894   0.099
    1MMT1    Ob 1567   1.525   3.038   0.330
    1MMT1    Ob 1568   1.872   2.836   0.330
    1MMT1    Ob 1569   1.786   3.089   0.306
    1MMT1     H 1570   1.617   2.817   0.143
    1MMT1    Al 1571   1.563   3.333   0.000
    1MMT1    Si 1572   1.638   3.143   0.268
    1MMT1    Si 1573   1.649   3.438   0.269
    1MMT1    Op 1574   1.619   3.170   0.106
    1MMT1    Op 1575   1.664   3.445   0.106
    1MMT1    Oh 1576   1.920   3.342   0.099
    1MMT1    Ob 1577   1.788   3.486   0.330
    1MMT1    Ob 1578   1.618   3.284   0.330
    1MMT1    Ob 1579   1.533   3.538   0.306
    1MMT1     H 1580   1.880   3.265   0.143
    1MMT1    Al 1581   1.823   3.482   0.000
    1MMT1    Si 1582   1.738   2.775  10.082
    1MMT1    Si 1583   1.737   3.377  10.081
    1MMT1    Op 1584   1.757   2.748  10.244
    1MMT1    Op 1585   1.722   3.370  10.244
    1MMT1    Oh 1586   1.982   3.473  10.251
    1MMT1    Ob 1587   2.114   3.328  10.020
    1MMT1    Ob 1588   1.767   3.530  10.021
    1MMT1    Ob 1589   1.853   3.277  10.045
    1MMT1     H 1590   2.022   3.550  10.208
    1MMT1    Al 1591   1.560   3.033   0.000
    1MMT1    Si 1592   2.001   3.223  10.082
    1MMT1    Si 1593   1.990   2.928  10.081
    1MMT1    Op 1594   2.020   3.196  10.244
    1MMT1    Op 1595   1.975   2.922  10.244
    1MMT1    Oh 1596   1.719   3.024  10.251
    1MMT1    Ob 1597   1.851   2.880  10.020
    1MMT1    Ob 1598   2.021   3.082  10.021
    1MMT1    Ob 1599   2.106   2.829  10.045
    1MMT1     H 1600   1.759   3.101  10.208
    1MMT1    Al 1601   2.332   2.885   0.000
    1MMT1    Si 1602   2.407   2.695   0.268
    1MMT1    Si 1603   2.418   2.990   0.269
    1MMT1   Omg 1604   2.388   2.722   0.106
    1MMT1   Omg 1605   2.433   2.996   0.106
    1MMT1    Oh 1606   2.173   2.894   0.099
    1MMT1    Ob 1607   2.041   3.038   0.330
    1MMT1    Ob 1608   2.388   2.836   0.330
    1MMT1    Ob 1609   2.302   3.089   0.306
    1MMT1     H 1610   2.133   2.817   0.143
    1MMT1    Al 1611   2.079   3.333   0.000
    1MMT1    Si 1612   2.154   3.143   0.268
    1MMT1    Si 1613   2.165   3.438   0.269
    1MMT1    Op 1614   2.135   3.170   0.106
    1MMT1   Omg 1615   2.180   3.445   0.106
    1MMT1  Ohmg 1616   2.436   3.342   0.099
    1MMT1    Ob 1617   2.304   3.486   0.330
    1MMT1    Ob 1618   2.134   3.284   0.330
    1MMT1    Ob 1619   2.049   3.538   0.306
    1MMT1     H 1620   2.396   3.265   0.143
    1MMT1   Mgo 1621   2.339   3.482   0.000
    1MMT1    Si 1622   2.254   2.775  10.082
    1MMT1    Si 1623   2.253   3.377  10.081
    1MMT1   Omg 1624   2.273   2.748  10.244
    1MMT1   Omg 1625   2.238   3.370  10.244
    1MMT1  Ohmg 1626   2.498   3.473  10.251
    1MMT1    Ob 1627   2.630   3.328  10.020
    1MMT1    Ob 1628   2.283   3.530  10.021
    1MMT1    Ob 1629   2.369   3.277  10.045
    1MMT1     H 1630   2.538   3.550  10.208
    1MMT1    Al 1631   2.076   3.033   0.000
    1MMT1    Si 1632   2.517   3.223  10.082
    1MMT1    Si 1633   2.506   2.928  10.081
    1MMT1   Omg 1634   2.536   3.196  10.244
    1MMT1   Omg 1635   2.491   2.922  10.244
    1MMT1    Oh 1636   2.235   3.024  10.251
    1MMT1    Ob 1637   2.367   2.880  10.020
    1MMT1    Ob 1638   2.537   3.082  10.021
    1MMT1    Ob 1639   2.622   2.829  10.045
    1MMT1     H 1640   2.275   3.101  10.208
    1MMT1    Al 1641   2.848   2.885   0.000
    1MMT1    Si 1642   2.923   2.695   0.268
    1MMT1    Si 1643   2.934   2.990   0.269
    1MMT1   Omg 1644   2.904   2.722   0.106
    1MMT1    Op 1645   2.949   2.996   0.106
    1MMT1  Ohmg 1646   2.689   2.894   0.099
    1MMT1    Ob 1647   2.557   3.038   0.330
    1MMT1    Ob 1648   2.904   2.836   0.330
    1MMT1    Ob 1649   2.818   3.089   0.306
    1MMT1     H 1650   2.649   2.817   0.143
    1MMT1    Al 1651   2.595   3.333   0.000
    1MMT1    Si 1652   2.670   3.143   0.268
    1MMT1    Si 1653   2.681   3.438   0.269
    1MMT1   Omg 1654   2.651   3.170   0.106
    1MMT1   Omg 1655   2.696   3.445   0.106
    1MMT1  Ohmg 1656   2.952   3.342   0.099
    1MMT1    Ob 1657   2.820   3.486   0.330
    1MMT1    Ob 1658   2.650   3.284   0.330
    1MMT1    Ob 1659   2.565   3.538   0.306
    1MMT1     H 1660   2.912   3.265   0.143
    1MMT1   Mgo 1661   2.855   3.482   0.000
    1MMT1    Si 1662   2.770   2.775  10.082
    1MMT1    Si 1663   2.769   3.377  10.081
    1MMT1   Omg 1664   2.789   2.748  10.244
    1MMT1   Omg 1665   2.754   3.370  10.244
    1MMT1  Ohmg 1666   3.014   3.473  10.251
    1MMT1    Ob 1667   3.146   3.328  10.020
    1MMT1    Ob 1668   2.799   3.530  10.021
    1MMT1    Ob 1669   2.885   3.277  10.045
    1MMT1     H 1670   3.054   3.550  10.208
    1MMT1   Mgo 1671   2.592   3.033   0.000
    1MMT1    Si 1672   3.033   3.223  10.082
    1MMT1    Si 1673   3.022   2.928  10.081
    1MMT1    Op 1674   3.052   3.196  10.244
    1MMT1    Op 1675   3.007   2.922  10.244
    1MMT1  Ohmg 1676   2.751   3.024  10.251
    1MMT1    Ob 1677   2.883   2.880  10.020
    1MMT1    Ob 1678   3.053   3.082  10.021
    1MMT1    Ob 1679   3.138   2.829  10.045
    1MMT1     H 1680   2.791   3.101  10.208
    1MMT1    Al 1681   3.364   2.885   0.000
    1MMT1    Si 1682   3.439   2.695   0.268
    1MMT1    Si 1683   3.450   2.990   0.269
    1MMT1   Omg 1684   3.420   2.722   0.106
    1MMT1    Op 1685   3.465   2.996   0.106
    1MMT1    Oh 1686   3.205   2.894   0.099
    1MMT1    Ob 1687   3.073   3.038   0.330
    1MMT1    Ob 1688   3.420   2.836   0.330
    1MMT1    Ob 1689   3.334   3.089   0.306
    1MMT1     H 1690   3.165   2.817   0.143
    1MMT1    Al 1691   3.111   3.333   0.000
    1MMT1    Si 1692   3.186   3.143   0.268
    1MMT1    Si 1693   3.197   3.438   0.269
    1MMT1    Op 1694   3.167   3.170   0.106
    1MMT1    Op 1695   3.212   3.445   0.106
    1MMT1    Oh 1696   3.468   3.342   0.099
    1MMT1    Ob 1697   3.336   3.486   0.330
    1MMT1    Ob 1698   3.166   3.284   0.330
    1MMT1    Ob 1699   3.081   3.538   0.306
    1MMT1     H 1700   3.428   3.265   0.143
    1MMT1    Al 1701   3.371   3.482   0.000
    1MMT1    Si 1702   3.286   2.775  10.082
    1MMT1    Si 1703   3.285   3.377  10.081
    1MMT1   Omg 1704   3.305   2.748  10.244
    1MMT1    Op 1705   3.270   3.370  10.244
    1MMT1    Oh 1706   3.530   3.473  10.251
    1MMT1    Ob 1707   3.662   3.328  10.020
    1MMT1    Ob 1708   3.315   3.530  10.021
    1MMT1    Ob 1709   3.401   3.277  10.045
    1MMT1     H 1710   3.570   3.550  10.208
    1MMT1    Al 1711   3.108   3.033   0.000
    1MMT1    Si 1712   3.549   3.223  10.082
    1MMT1    Si 1713   3.538   2.928  10.081
    1MMT1    Op 1714   3.568   3.196  10.244
    1MMT1    Op 1715   3.523   2.922  10.244
    1MMT1    Oh 1716   3.267   3.024  10.251
    1MMT1    Ob 1717   3.399   2.880  10.020
    1MMT1    Ob 1718   3.569   3.082  10.021
    1MMT1    Ob 1719   3.654   2.829  10.045
    1MMT1     H 1720   3.307   3.101  10.208
    1MMT1    Al 1721   3.880   2.885   0.000
    1MMT1    Si 1722   3.955   2.695   0.268
    1MMT1    Si 1723   3.966   2.990   0.269
    1MMT1    Op 1724   3.936   2.722   0.106
    1MMT1    Op 1725   3.981   2.996   0.106
    1MMT1    Oh 1726   3.721   2.894   0.099
    1MMT1    Ob 1727   3.589   3.038   0.330
    1MMT1    Ob 1728   3.936   2.836   0.330
    1MMT1    Ob 1729   3.850   3.089   0.306
    1MMT1     H 1730   3.681   2.817   0.143
    1MMT1    Al 1731   3.627   3.333   0.000
    1MMT1    Si 1732   3.702   3.143   0.268
    1MMT1    Si 1733   3.713   3.438   0.269
    1MMT1    Op 1734   3.683   3.170   0.106
    1MMT1    Op 1735   3.728   3.445   0.106
    1MMT1    Oh 1736   3.984   3.342   0.099
    1MMT1    Ob 1737   3.852   3.486   0.330
    1MMT1    Ob 1738   3.682   3.284   0.330
    1MMT1    Ob 1739   3.597   3.538   0.306
    1MMT1     H 1740   3.944   3.265   0.143
    1MMT1    Al 1741   3.887   3.482   0.000
    1MMT1    Si 1742   3.802   2.775  10.082
    1MMT1    Si 1743   3.801   3.377  10.081
    1MMT1    Op 1744   3.821   2.748  10.244
    1MMT1    Op 1745   3.786   3.370  10.244
    1MMT1    Oh 1746   4.046   3.473  10.251
    1MMT1    Ob 1747   4.178   3.328  10.020
    1MMT1    Ob 1748   3.831   3.530  10.021
    1MMT1    Ob 1749   3.917   3.277  10.045
    1MMT1     H 1750   4.086   3.550  10.208
    1MMT1    Al 1751   3.624   3.033   0.000
    1MMT1    Si 1752   4.065   3.223  10.082
    1MMT1    Si 1753   4.054   2.928  10.081
    1MMT1    Op 1754   4.084   3.196  10.244
    1MMT1    Op 1755   4.039   2.922  10.244
    1MMT1    Oh 1756   3.783   3.024  10.251
    1MMT1    Ob 1757   3.915   2.880  10.020
    1MMT1    Ob 1758   4.085   3.082  10.021
    1MMT1    Ob 1759   4.170   2.829  10.045
    1MMT1     H 1760   3.823   3.101  10.208
    1MMT1    Al 1761   4.396   2.885   0.000
    1MMT1    Si 1762   4.471   2.695   0.268
    1MMT1    Si 1763   4.482   2.990   0.269
    1MMT1    Op 1764   4.452   2.722   0.106
    1MMT1    Op 1765   4.497   2.996   0.106
    1MMT1    Oh 1766   4.237   2.894   0.099
    1MMT1    Ob 1767   4.105   3.038   0.330
    1MMT1    Ob 1768   4.452   2.836   0.330
    1MMT1    Ob 1769   4.366   3.089   0.306
    1MMT1     H 1770   4.197   2.817   0.143
    1MMT1    Al 1771   4.143   3.333   0.000
    1MMT1    Si 1772   4.218   3.143   0.268
    1MMT1    Si 1773   4.229   3.438   0.269
    1MMT1    Op 1774   4.199   3.170   0.106
    1MMT1   Omg 1775   4.244   3.445   0.106
    1MMT1  Ohmg 1776   4.500   3.342   0.099
    1MMT1    Ob 1777   4.368   3.486   0.330
    1MMT1    Ob 1778   4.198   3.284   0.330
    1MMT1    Ob 1779   4.113   3.538   0.306
    1MMT1     H 1780   4.460   3.265   0.143
    1MMT1   Mgo 1781   4.403   3.482   0.000
    1MMT1    Si 1782   4.318   2.775  10.082
    1MMT1    Si 1783   4.317   3.377  10.081
    1MMT1    Op 1784   4.337   2.748  10.244
    1MMT1   Omg 1785   4.302   3.370  10.244
    1MMT1  Ohmg 1786   4.562   3.473  10.251
    1MMT1    Ob 1787   4.694   3.328  10.020
    1MMT1    Ob 1788   4.347   3.530  10.021
    1MMT1    Ob 1789   4.433   3.277  10.045
    1MMT1     H 1790   4.602   3.550  10.208
    1MMT1    Al 1791   4.140   3.033   0.000
    1MMT1    Si 1792   4.581   3.223  10.082
    1MMT1    Si 1793   4.570   2.928  10.081
    1MMT1    Op 1794   4.600   3.196  10.244
    1MMT1    Op 1795   4.555   2.922  10.244
    1MMT1    Oh 1796   4.299   3.024  10.251
    1MMT1    Ob 1797   4.431   2.880  10.020
    1MMT1    Ob 1798   4.601   3.082  10.021
    1MMT1    Ob 1799   4.686   2.829  10.045
    1MMT1     H 1800   4.339   3.101  10.208
    1MMT1    Al 1801   4.912   2.885   0.000
    1MMT1    Si 1802   4.987   2.695   0.268
    1MMT1    Si 1803   4.998   2.990   0.269
    1MMT1    Op 1804   4.968   2.722   0.106
    1MMT1   Omg 1805   5.013   2.996   0.106
    1MMT1    Oh 1806   4.753   2.894   0.099
    1MMT1    Ob 1807   4.621   3.038   0.330
    1MMT1    Ob 1808   4.968   2.836   0.330
    1MMT1    Ob 1809   4.882   3.089   0.306
    1MMT1     H 1810   4.713   2.817   0.143
    1MMT1    Al 1811   4.659   3.333   0.000
    1MMT1    Si 1812   4.734   3.143   0.268
    1MMT1    Si 1813   4.745   3.438   0.269
    1MMT1    Op 1814   4.715   3.170   0.106
    1MMT1    Op 1815   4.760   3.445   0.106
    1MMT1    Oh 1816   5.016   3.342   0.099
    1MMT1    Ob 1817   4.884   3.486   0.330
    1MMT1    Ob 1818   4.714   3.284   0.330
    1MMT1    Ob 1819   4.629   3.538   0.306
    1MMT1     H 1820   4.976   3.265   0.143
    1MMT1    Al 1821   4.919   3.482   0.000
    1MMT1    Si 1822   4.834   2.775  10.082
    1MMT1    Si 1823   4.833   3.377  10.081
    1MMT1    Op 1824   4.853   2.748  10.244
    1MMT1    Op 1825   4.818   3.370  10.244
    1MMT1    Oh 1826   5.078   3.473  10.251
    1MMT1    Ob 1827   5.210   3.328  10.020
    1MMT1    Ob 1828   4.863   3.530  10.021
    1MMT1    Ob 1829   4.949   3.277  10.045
    1MMT1     H 1830   5.118   3.550  10.208
    1MMT1    Al 1831   4.656   3.033   0.000
    1MMT1    Si 1832   5.097   3.223  10.082
    1MMT1    Si 1833   5.086   2.928  10.081
    1MMT1   Omg 1834   5.116   3.196  10.244
    1MMT1   Omg 1835   5.071   2.922  10.244
    1MMT1    Oh 1836   4.815   3.024  10.251
    1MMT1    Ob 1837   4.947   2.880  10.020
    1MMT1    Ob 1838   5.117   3.082  10.021
    1MMT1    Ob 1839   5.202   2.829  10.045
    1MMT1     H 1840   4.855   3.101  10.208
    1MMT1    Al 1841   5.428   2.885   0.000
    1MMT1    Si 1842   5.503   2.695   0.268
    1MMT1    Si 1843   5.514   2.990   0.269
    1MMT1    Op 1844   5.484   2.722   0.106
    1MMT1    Op 1845   5.529   2.996   0.106
    1MMT1  Ohmg 1846   5.269   2.894   0.099
    1MMT1    Ob 1847   5.137   3.038   0.330
    1MMT1    Ob 1848   5.484   2.836   0.330
    1MMT1    Ob 1849   5.398   3.089   0.306
    1MMT1     H 1850   5.229   2.817   0.143
    1MMT1    Al 1851   5.175   3.333   0.000
    1MMT1    Si 1852   5.250   3.143   0.268
    1MMT1    Si 1853   5.261   3.438   0.269
    1MMT1   Omg 1854   5.231   3.170   0.106
    1MMT1    Op 1855   5.276   3.445   0.106
    1MMT1    Oh 1856   5.532   3.342   0.099
    1MMT1    Ob 1857   5.400   3.486   0.330
    1MMT1    Ob 1858   5.230   3.284   0.330
    1MMT1    Ob 1859   5.145   3.538   0.306
    1MMT1     H 1860   5.492   3.265   0.143
    1MMT1    Al 1861   5.435   3.482   0.000
    1MMT1    Si 1862   5.350   2.775  10.082
    1MMT1    Si 1863   5.349   3.377  10.081
    1MMT1    Op 1864   5.369   2.748  10.244
    1MMT1    Op 1865   5.334   3.370  10.244
    1MMT1    Oh 1866   5.594   3.473  10.251
    1MMT1    Ob 1867   5.726   3.328  10.020
    1MMT1    Ob 1868   5.379   3.530  10.021
    1MMT1    Ob 1869   5.465   3.277  10.045
    1MMT1     H 1870   5.634   3.550  10.208
    1MMT1   Mgo 1871   5.172   3.033   0.000
    1MMT1    Si 1872   5.613   3.223  10.082
    1MMT1    Si 1873   5.602   2.928  10.081
    1MMT1    Op 1874   5.632   3.196  10.244
    1MMT1    Op 1875   5.587   2.922  10.244
    1MMT1  Ohmg 1876   5.331   3.024  10.251
    1MMT1    Ob 1877   5.463   2.880  10.020
    1MMT1    Ob 1878   5.633   3.082  10.021
    1MMT1    Ob 1879   5.718   2.829  10.045
    1MMT1     H 1880   5.371   3.101  10.208
    1MMT1   Mgo 1881   5.944   2.885   0.000
    1MMT1    Si 1882   6.019   2.695   0.268
    1MMT1    Si 1883   6.030   2.990   0.269
    1MMT1   Omg 1884   6.000   2.722   0.106
    1MMT1   Omg 1885   6.045   2.996   0.106
    1MMT1  Ohmg 1886   5.785   2.894   0.099
    1MMT1    Ob 1887   5.653   3.038   0.330
    1MMT1    Ob 1888   6.000   2.836   0.330
    1MMT1    Ob 1889   5.914   3.089   0.306
    1MMT1     H 1890   5.745   2.817   0.143
    1MMT1    Al 1891   5.691   3.333   0.000
    1MMT1    Si 1892   5.766   3.143   0.268
    1MMT1    Si 1893   5.777   3.438   0.269
    1MMT1    Op 1894   5.747   3.170   0.106
    1MMT1    Op 1895   5.792   3.445   0.106
    1MMT1  Ohmg 1896   6.048   3.342   0.099
    1MMT1    Ob 1897   5.916   3.486   0.330
    1MMT1    Ob 1898   5.746   3.284   0.330
    1MMT1    Ob 1899   5.661   3.538   0.306
    1MMT1     H 1900   6.008   3.265   0.143
    1MMT1    Al 1901   5.951   3.482   0.000
    1MMT1    Si 1902   5.866   2.775  10.082
    1MMT1    Si 1903   5.865   3.377  10.081
    1MMT1   Omg 1904   5.885   2.748  10.244
    1MMT1    Op 1905   5.850   3.370  10.244
    1MMT1  Ohmg 1906   6.110   3.473  10.251
    1MMT1    Ob 1907   0.050   3.328  10.020
    1MMT1    Ob 1908   5.895   3.530  10.021
    1MMT1    Ob 1909   5.981   3.277  10.045
    1MMT1     H 1910   6.150   3.550  10.208
    1MMT1    Al 1911   5.688   3.033   0.000
    1MMT1    Si 1912   6.129   3.223  10.082
    1MMT1    Si 1913   6.118   2.928  10.081
    1MMT1   Omg 1914   6.148   3.196  10.244
    1MMT1   Omg 1915   6.103   2.922  10.244
    1MMT1  Ohmg 1916   5.847   3.024  10.251
    1MMT1    Ob 1917   5.979   2.880  10.020
    1MMT1    Ob 1918   6.149   3.082  10.021
    1MMT1    Ob 1919   0.042   2.829  10.045
    1MMT1     H 1920   5.887   3.101  10.208
    1MMT1    Al 1921   0.278   3.781   0.000
    1MMT1    Si 1922   0.353   3.592   0.268
    1MMT1    Si 1923   0.364   3.886   0.269
    1MMT1    Op 1924   0.334   3.618   0.106
    1MMT1    Op 1925   0.379   3.893   0.106
    1MMT1  Ohmg 1926   0.119   3.791   0.099
    1MMT1    Ob 1927   6.179   3.935   0.330
    1MMT1    Ob 1928   0.333   3.733   0.330
    1MMT1    Ob 1929   0.247   3.986   0.306
    1MMT1     H 1930   0.079   3.713   0.143
    1MMT1    Al 1931   0.024   4.230   0.000
    1MMT1    Si 1932   0.100   4.040   0.268
    1MMT1    Si 1933   0.111   4.335   0.269
    1MMT1   Omg 1934   0.081   4.067   0.106
    1MMT1    Op 1935   0.126   4.341   0.106
    1MMT1  Ohmg 1936   0.381   4.239   0.099
    1MMT1    Ob 1937   0.250   4.383   0.330
    1MMT1    Ob 1938   0.080   4.181   0.330
    1MMT1    Ob 1939   6.186   4.434   0.306
    1MMT1     H 1940   0.341   4.162   0.143
    1MMT1    Al 1941   0.285   4.378   0.000
    1MMT1    Si 1942   0.199   3.671  10.082
    1MMT1    Si 1943   0.198   4.273  10.081
    1MMT1    Op 1944   0.219   3.645  10.244
    1MMT1    Op 1945   0.183   4.267  10.244
    1MMT1  Ohmg 1946   0.444   4.369  10.251
    1MMT1    Ob 1947   0.575   4.225  10.020
    1MMT1    Ob 1948   0.229   4.427  10.021
    1MMT1    Ob 1949   0.315   4.174  10.045
    1MMT1     H 1950   0.484   4.446  10.208
    1MMT1   Mgo 1951   0.022   3.930   0.000
    1MMT1    Si 1952   0.462   4.120  10.082
    1MMT1    Si 1953   0.452   3.825  10.081
    1MMT1   Omg 1954   0.482   4.093  10.244
    1MMT1    Op 1955   0.436   3.819  10.244
    1MMT1  Ohmg 1956   0.181   3.921  10.251
    1MMT1    Ob 1957   0.313   3.777  10.020
    1MMT1    Ob 1958   0.482   3.979  10.021
    1MMT1    Ob 1959   0.568   3.725  10.045
    1MMT1     H 1960   0.221   3.998  10.208
    1MMT1   Mgo 1961   0.794   3.781   0.000
    1MMT1    Si 1962   0.869   3.592   0.268
    1MMT1    Si 1963   0.880   3.886   0.269
    1MMT1   Omg 1964   0.850   3.618   0.106
    1MMT1   Omg 1965   0.895   3.893   0.106
    1MMT1  Ohmg 1966   0.635   3.791   0.099
    1MMT1    Ob 1967   0.503   3.935   0.330
    1MMT1    Ob 1968   0.849   3.733   0.330
    1MMT1    Ob 1969   0.763   3.986   0.306
    1MMT1     H 1970   0.595   3.713   0.143
    1MMT1   Mgo 1971   0.540   4.230   0.000
    1MMT1    Si 1972   0.616   4.040   0.268
    1MMT1    Si 1973   0.627   4.335   0.269
    1MMT1   Omg 1974   0.597   4.067   0.106
    1MMT1   Omg 1975   0.642   4.341   0.106
    1MMT1  Ohmg 1976   0.897   4.239   0.099
    1MMT1    Ob 1977   0.766   4.383   0.330
    1MMT1    Ob 1978   0.596   4.181   0.330
    1MMT1    Ob 1979   0.510   4.434   0.306
    1MMT1     H 1980   0.857   4.162   0.143
    1MMT1    Al 1981   0.801   4.378   0.000
    1MMT1    Si 1982   0.715   3.671  10.082
    1MMT1    Si 1983   0.714   4.273  10.081
    1MMT1   Omg 1984   0.735   3.645  10.244
    1MMT1   Omg 1985   0.699   4.267  10.244
    1MMT1  Ohmg 1986   0.960   4.369  10.251
    1MMT1    Ob 1987   1.091   4.225  10.020
    1MMT1    Ob 1988   0.745   4.427  10.021
    1MMT1    Ob 1989   0.831   4.174  10.045
    1MMT1     H 1990   1.000   4.446  10.208
    1MMT1    Al 1991   0.538   3.930   0.000
    1MMT1    Si 1992   0.978   4.120  10.082
    1MMT1    Si 1993   0.968   3.825  10.081
    1MMT1   Omg 1994   0.998   4.093  10.244
    1MMT1   Omg 1995   0.952   3.819  10.244
    1MMT1  Ohmg 1996   0.697   3.921  10.251
    1MMT1    Ob 1997   0.829   3.777  10.020
    1MMT1    Ob 1998   0.998   3.979  10.021
    1MMT1    Ob 1999   1.084   3.725  10.045
    1MMT1     H 2000   0.737   3.998  10.208
    1MMT1    Al 2001   1.310   3.781   0.000
    1MMT1    Si 2002   1.385   3.592   0.268
    1MMT1    Si 2003   1.396   3.886   0.269
    1MMT1    Op 2004   1.366   3.618   0.106
    1MMT1    Op 2005   1.411   3.893   0.106
    1MMT1    Oh 2006   1.151   3.791   0.099
    1MMT1    Ob 2007   1.019   3.935   0.330
    1MMT1    Ob 2008   1.365   3.733   0.330
    1MMT1    Ob 2009   1.279   3.986   0.306
    1MMT1     H 2010   1.111   3.713   0.143
    1MMT1   Mgo 2011   1.056   4.230   0.000
    1MMT1    Si 2012   1.132   4.040   0.268
    1MMT1    Si 2013   1.143   4.335   0.269
    1MMT1   Omg 2014   1.113   4.067   0.106
    1MMT1   Omg 2015   1.158   4.341   0.106
    1MMT1    Oh 2016   1.413   4.239   0.099
    1MMT1    Ob 2017   1.282   4.383   0.330
    1MMT1    Ob 2018   1.112   4.181   0.330
    1MMT1    Ob 2019   1.026   4.434   0.306
    1MMT1     H 2020   1.373   4.162   0.143
    1MMT1    Al 2021   1.317   4.378   0.000
    1MMT1    Si 2022   1.231   3.671  10.082
    1MMT1    Si 2023   1.230   4.273  10.081
    1MMT1    Op 2024   1.251   3.645  10.244
    1MMT1   Omg 2025   1.215   4.267  10.244
    1MMT1    Oh 2026   1.476   4.369  10.251
    1MMT1    Ob 2027   1.607   4.225  10.020
    1MMT1    Ob 2028   1.261   4.427  10.021
    1MMT1    Ob 2029   1.347   4.174  10.045
    1MMT1     H 2030   1.516   4.446  10.208
    1MMT1    Al 2031   1.054   3.930   0.000
    1MMT1    Si 2032   1.494   4.120  10.082
    1MMT1    Si 2033   1.484   3.825  10.081
    1MMT1    Op 2034   1.514   4.093  10.244
    1MMT1    Op 2035   1.468   3.819  10.244
    1MMT1    Oh 2036   1.213   3.921  10.251
    1MMT1    Ob 2037   1.345   3.777  10.020
    1MMT1    Ob 2038   1.514   3.979  10.021
    1MMT1    Ob 2039   1.600   3.725  10.045
    1MMT1     H 2040   1.253   3.998  10.208
    1MMT1   Mgo 2041   1.826   3.781   0.000
    1MMT1    Si 2042   1.901   3.592   0.268
    1MMT1    Si 2043   1.912   3.886   0.269
    1MMT1   Omg 2044   1.882   3.618   0.106
    1MMT1   Omg 2045   1.927   3.893   0.106
    1MMT1  Ohmg 2046   1.667   3.791   0.099
    1MMT1    Ob 2047   1.535   3.935   0.330
    1MMT1    Ob 2048   1.881   3.733   0.330
    1MMT1    Ob 2049   1.795   3.986   0.306
    1MMT1     H 2050   1.627   3.713   0.143
    1MMT1    Al 2051   1.572   4.230   0.000
    1MMT1    Si 2052   1.648   4.040   0.268
    1MMT1    Si 2053   1.659   4.335   0.269
    1MMT1    Op 2054   1.629   4.067   0.106
    1MMT1    Op 2055   1.674   4.341   0.106
    1MMT1    Oh 2056   1.929   4.239   0.099
    1MMT1    Ob 2057   1.798   4.383   0.330
    1MMT1    Ob 2058   1.628   4.181   0.330
    1MMT1    Ob 2059   1.542   4.434   0.306
    1MMT1     H 2060   1.889   4.162   0.143
    1MMT1    Al 2061   1.833   4.378   0.000
    1MMT1    Si 2062   1.747   3.671  10.082
    1MMT1    Si 2063   1.746   4.273  10.081
    1MMT1   Omg 2064   1.767   3.645  10.244
    1MMT1    Op 2065   1.731   4.267  10.244
    1MMT1    Oh 2066   1.992   4.369  10.251
    1MMT1    Ob 2067   2.123   4.225  10.020
    1MMT1    Ob 2068   1.777   4.427  10.021
    1MMT1    Ob 2069   1.863   4.174  10.045
    1MMT1     H 2070   2.032   4.446  10.208
    1MMT1    Al 2071   1.570   3.930   0.000
    1MMT1    Si 2072   2.010   4.120  10.082
    1MMT1    Si 2073   2.000   3.825  10.081
    1MMT1    Op 2074   2.030   4.093  10.244
    1MMT1   Omg 2075   1.984   3.819  10.244
    1MMT1  Ohmg 2076   1.729   3.921  10.251
    1MMT1    Ob 2077   1.861   3.777  10.020
    1MMT1    Ob 2078   2.030   3.979  10.021
    1MMT1    Ob 2079   2.116   3.725  10.045
    1MMT1     H 2080   1.769   3.998  10.208
    1MMT1    Al 2081   2.342   3.781   0.000
    1MMT1    Si 2082   2.417   3.592   0.268
    1MMT1    Si 2083   2.428   3.886   0.269
    1MMT1   Omg 2084   2.398   3.618   0.106
    1MMT1    Op 2085   2.443   3.893   0.106
    1MMT1    Oh 2086   2.183   3.791   0.099
    1MMT1    Ob 2087   2.051   3.935   0.330
    1MMT1    Ob 2088   2.397   3.733   0.330
    1MMT1    Ob 2089   2.311   3.986   0.306
    1MMT1     H 2090   2.143   3.713   0.143
    1MMT1    Al 2091   2.088   4.230   0.000
    1MMT1    Si 2092   2.164   4.040   0.268
    1MMT1    Si 2093   2.175   4.335   0.269
    1MMT1    Op 2094   2.145   4.067   0.106
    1MMT1   Omg 2095   2.190   4.341   0.106
    1MMT1  Ohmg 2096   2.445   4.239   0.099
    1MMT1    Ob 2097   2.314   4.383   0.330
    1MMT1    Ob 2098   2.144   4.181   0.330
    1MMT1    Ob 2099   2.058   4.434   0.306
    1MMT1     H 2100   2.405   4.162   0.143
    1MMT1   Mgo 2101   2.349   4.378   0.000
    1MMT1    Si 2102   2.263   3.671  10.082
    1MMT1    Si 2103   2.262   4.273  10.081
    1MMT1   Omg 2104   2.283   3.645  10.244
    1MMT1   Omg 2105   2.247   4.267  10.244
    1MMT1  Ohmg 2106   2.508   4.369  10.251
    1MMT1    Ob 2107   2.639   4.225  10.020
    1MMT1    Ob 2108   2.293   4.427  10.021
    1MMT1    Ob 2109   2.379   4.174  10.045
    1MMT1     H 2110   2.548   4.446  10.208
    1MMT1    Al 2111   2.086   3.930   0.000
    1MMT1    Si 2112   2.526   4.120  10.082
    1MMT1    Si 2113   2.516   3.825  10.081
    1MMT1    Op 2114   2.546   4.093  10.244
    1MMT1    Op 2115   2.500   3.819  10.244
    1MMT1    Oh 2116   2.245   3.921  10.251
    1MMT1    Ob 2117   2.377   3.777  10.020
    1MMT1    Ob 2118   2.546   3.979  10.021
    1MMT1    Ob 2119   2.632   3.725  10.045
    1MMT1     H 2120   2.285   3.998  10.208
    1MMT1    Al 2121   2.858   3.781   0.000
    1MMT1    Si 2122   2.933   3.592   0.268
    1MMT1    Si 2123   2.944   3.886   0.269
    1MMT1   Omg 2124   2.914   3.618   0.106
    1MMT1    Op 2125   2.959   3.893   0.106
    1MMT1    Oh 2126   2.699   3.791   0.099
    1MMT1    Ob 2127   2.567   3.935   0.330
    1MMT1    Ob 2128   2.913   3.733   0.330
    1MMT1    Ob 2129   2.827   3.986   0.306
    1MMT1     H 2130   2.659   3.713   0.143
    1MMT1    Al 2131   2.604   4.230   0.000
    1MMT1    Si 2132   2.680   4.040   0.268
    1MMT1    Si 2133   2.691   4.335   0.269
    1MMT1    Op 2134   2.661   4.067   0.106
    1MMT1    Op 2135   2.706   4.341   0.106
    1MMT1  Ohmg 2136   2.961   4.239   0.099
    1MMT1    Ob 2137   2.830   4.383   0.330
    1MMT1    Ob 2138   2.660   4.181   0.330
    1MMT1    Ob 2139   2.574   4.434   0.306
    1MMT1     H 2140   2.921   4.162   0.143
    1MMT1    Al 2141   2.865   4.378   0.000
    1MMT1    Si 2142   2.779   3.671  10.082
    1MMT1    Si 2143   2.778   4.273  10.081
    1MMT1   Omg 2144   2.799   3.645  10.244
    1MMT1    Op 2145   2.763   4.267  10.244
    1MMT1  Ohmg 2146   3.024   4.369  10.251
    1MMT1    Ob 2147   3.155   4.225  10.020
    1MMT1    Ob 2148   2.809   4.427  10.021
    1MMT1    Ob 2149   2.895   4.174  10.045
    1MMT1     H 2150   3.064   4.446  10.208
    1MMT1    Al 2151   2.602   3.930   0.000
    1MMT1    Si 2152   3.042   4.120  10.082
    1MMT1    Si 2153   3.032   3.825  10.081
    1MMT1   Omg 2154   3.062   4.093  10.244
    1MMT1    Op 2155   3.016   3.819  10.244
    1MMT1    Oh 2156   2.761   3.921  10.251
    1MMT1    Ob 2157   2.893   3.777  10.020
    1MMT1    Ob 2158   3.062   3.979  10.021
    1MMT1    Ob 2159   3.148   3.725  10.045
    1MMT1     H 2160   2.801   3.998  10.208
    1MMT1   Mgo 2161   3.374   3.781   0.000
    1MMT1    Si 2162   3.449   3.592   0.268
    1MMT1    Si 2163   3.460   3.886   0.269
    1MMT1   Omg 2164   3.430   3.618   0.106
    1MMT1   Omg 2165   3.475   3.893   0.106
    1MMT1  Ohmg 2166   3.215   3.791   0.099
    1MMT1    Ob 2167   3.083   3.935   0.330
    1MMT1    Ob 2168   3.429   3.733   0.330
    1MMT1    Ob 2169   3.343   3.986   0.306
    1MMT1     H 2170   3.175   3.713   0.143
    1MMT1   Mgo 2171   3.120   4.230   0.000
    1MMT1    Si 2172   3.196   4.040   0.268
    1MMT1    Si 2173   3.207   4.335   0.269
    1MMT1   Omg 2174   3.177   4.067   0.106
    1MMT1   Omg 2175   3.222   4.341   0.106
    1MMT1    Oh 2176   3.477   4.239   0.099
    1MMT1    Ob 2177   3.346   4.383   0.330
    1MMT1    Ob 2178   3.176   4.181   0.330
    1MMT1    Ob 2179   3.090   4.434   0.306
    1MMT1     H 2180   3.437   4.162   0.143
    1MMT1    Al 2181   3.381   4.378   0.000
    1MMT1    Si 2182   3.295   3.671  10.082
    1MMT1    Si 2183   3.294   4.273  10.081
    1MMT1   Omg 2184   3.315   3.645  10.244
    1MMT1   Omg 2185   3.279   4.267  10.244
    1MMT1    Oh 2186   3.540   4.369  10.251
    1MMT1    Ob 2187   3.671   4.225  10.020
    1MMT1    Ob 2188   3.325   4.427  10.021
    1MMT1    Ob 2189   3.411   4.174  10.045
    1MMT1     H 2190   3.580   4.446  10.208
    1MMT1    Al 2191   3.118   3.930   0.000
    1MMT1    Si 2192   3.558   4.120  10.082
    1MMT1    Si 2193   3.548   3.825  10.081
    1MMT1    Op 2194   3.578   4.093  10.244
    1MMT1   Omg 2195   3.532   3.819  10.244
    1MMT1  Ohmg 2196   3.277   3.921  10.251
    1MMT1    Ob 2197   3.409   3.777  10.020
    1MMT1    Ob 2198   3.578   3.979  10.021
    1MMT1    Ob 2199   3.664   3.725  10.045
    1MMT1     H 2200   3.317   3.998  10.208
    1MMT1   Mgo 2201   3.890   3.781   0.000
    1MMT1    Si 2202   3.965   3.592   0.268
    1MMT1    Si 2203   3.976   3.886   0.269
    1MMT1   Omg 2204   3.946   3.618   0.106
    1MMT1   Omg 2205   3.991   3.893   0.106
    1MMT1  Ohmg 2206   3.731   3.791   0.099
    1MMT1    Ob 2207   3.599   3.935   0.330
    1MMT1    Ob 2208   3.945   3.733   0.330
    1MMT1    Ob 2209   3.859   3.986   0.306
    1MMT1     H 2210   3.691   3.713   0.143
    1MMT1    Al 2211   3.636   4.230   0.000
    1MMT1    Si 2212   3.712   4.040   0.268
    1MMT1    Si 2213   3.723   4.335   0.269
    1MMT1    Op 2214   3.693   4.067   0.106
    1MMT1   Omg 2215   3.738   4.341   0.106
    1MMT1  Ohmg 2216   3.993   4.239   0.099
    1MMT1    Ob 2217   3.862   4.383   0.330
    1MMT1    Ob 2218   3.692   4.181   0.330
    1MMT1    Ob 2219   3.606   4.434   0.306
    1MMT1     H 2220   3.953   4.162   0.143
    1MMT1   Mgo 2221   3.897   4.378   0.000
    1MMT1    Si 2222   3.811   3.671  10.082
    1MMT1    Si 2223   3.810   4.273  10.081
    1MMT1   Omg 2224   3.831   3.645  10.244
    1MMT1   Omg 2225   3.795   4.267  10.244
    1MMT1  Ohmg 2226   4.056   4.369  10.251
    1MMT1    Ob 2227   4.187   4.225  10.020
    1MMT1    Ob 2228   3.841   4.427  10.021
    1MMT1    Ob 2229   3.927   4.174  10.045
    1MMT1     H 2230   4.096   4.446  10.208
    1MMT1    Al 2231   3.634   3.930   0.000
    1MMT1    Si 2232   4.074   4.120  10.082
    1MMT1    Si 2233   4.064   3.825  10.081
    1MMT1    Op 2234   4.094   4.093  10.244
    1MMT1   Omg 2235   4.048   3.819  10.244
    1MMT1  Ohmg 2236   3.793   3.921  10.251
    1MMT1    Ob 2237   3.925   3.777  10.020
    1MMT1    Ob 2238   4.094   3.979  10.021
    1MMT1    Ob 2239   4.180   3.725  10.045
    1MMT1     H 2240   3.833   3.998  10.208
    1MMT1    Al 2241   4.406   3.781   0.000
    1MMT1    Si 2242   4.481   3.592   0.268
    1MMT1    Si 2243   4.492   3.886   0.269
    1MMT1   Omg 2244   4.462   3.618   0.106
    1MMT1    Op 2245   4.507   3.893   0.106
    1MMT1    Oh 2246   4.247   3.791   0.099
    1MMT1    Ob 2247   4.115   3.935   0.330
    1MMT1    Ob 2248   4.461   3.733   0.330
    1MMT1    Ob 2249   4.375   3.986   0.306
    1MMT1     H 2250   4.207   3.713   0.143
    1MMT1    Al 2251   4.152   4.230   0.000
    1MMT1    Si 2252   4.228   4.040   0.268
    1MMT1    Si 2253   4.239   4.335   0.269
    1MMT1    Op 2254   4.209   4.067   0.106
    1MMT1    Op 2255   4.254   4.341   0.106
    1MMT1  Ohmg 2256   4.509   4.239   0.099
    1MMT1    Ob 2257   4.378   4.383   0.330
    1MMT1    Ob 2258   4.208   4.181   0.330
    1MMT1    Ob 2259   4.122   4.434   0.306
    1MMT1     H 2260   4.469   4.162   0.143
    1MMT1    Al 2261   4.413   4.378   0.000
    1MMT1    Si 2262   4.327   3.671  10.082
    1MMT1    Si 2263   4.326   4.273  10.081
    1MMT1   Omg 2264   4.347   3.645  10.244
    1MMT1    Op 2265   4.311   4.267  10.244
    1MMT1  Ohmg 2266   4.572   4.369  10.251
    1MMT1    Ob 2267   4.703   4.225  10.020
    1MMT1    Ob 2268   4.357   4.427  10.021
    1MMT1    Ob 2269   4.443   4.174  10.045
    1MMT1     H 2270   4.612   4.446  10.208
    1MMT1    Al 2271   4.150   3.930   0.000
    1MMT1    Si 2272   4.590   4.120  10.082
    1MMT1    Si 2273   4.580   3.825  10.081
    1MMT1   Omg 2274   4.610   4.093  10.244
    1MMT1    Op 2275   4.564   3.819  10.244
    1MMT1    Oh 2276   4.309   3.921  10.251
    1MMT1    Ob 2277   4.441   3.777  10.020
    1MMT1    Ob 2278   4.610   3.979  10.021
    1MMT1    Ob 2279   4.696   3.725  10.045
    1MMT1     H 2280   4.349   3.998  10.208
    1MMT1    Al 2281   4.922   3.781   0.000
    1MMT1    Si 2282   4.997   3.592   0.268
    1MMT1    Si 2283   5.008   3.886   0.269
    1MMT1    Op 2284   4.978   3.618   0.106
    1MMT1    Op 2285   5.023   3.893   0.106
    1MMT1    Oh 2286   4.763   3.791   0.099
    1MMT1    Ob 2287   4.631   3.935   0.330
    1MMT1    Ob 2288   4.977   3.733   0.330
    1MMT1    Ob 2289   4.891   3.986   0.306
    1MMT1     H 2290   4.723   3.713   0.143
    1MMT1   Mgo 2291   4.668   4.230   0.000
    1MMT1    Si 2292   4.744   4.040   0.268
    1MMT1    Si 2293   4.755   4.335   0.269
    1MMT1   Omg 2294   4.725   4.067   0.106
    1MMT1   Omg 2295   4.770   4.341   0.106
    1MMT1    Oh 2296   5.025   4.239   0.099
    1MMT1    Ob 2297   4.894   4.383   0.330
    1MMT1    Ob 2298   4.724   4.181   0.330
    1MMT1    Ob 2299   4.638   4.434   0.306
    1MMT1     H 2300   4.985   4.162   0.143
    1MMT1    Al 2301   4.929   4.378   0.000
    1MMT1    Si 2302   4.843   3.671  10.082
    1MMT1    Si 2303   4.842   4.273  10.081
    1MMT1    Op 2304   4.863   3.645  10.244
    1MMT1   Omg 2305   4.827   4.267  10.244
    1MMT1    Oh 2306   5.088   4.369  10.251
    1MMT1    Ob 2307   5.219   4.225  10.020
    1MMT1    Ob 2308   4.873   4.427  10.021
    1MMT1    Ob 2309   4.959   4.174  10.045
    1MMT1     H 2310   5.128   4.446  10.208
    1MMT1    Al 2311   4.666   3.930   0.000
    1MMT1    Si 2312   5.106   4.120  10.082
    1MMT1    Si 2313   5.096   3.825  10.081
    1MMT1    Op 2314   5.126   4.093  10.244
    1MMT1    Op 2315   5.080   3.819  10.244
    1MMT1    Oh 2316   4.825   3.921  10.251
    1MMT1    Ob 2317   4.957   3.777  10.020
    1MMT1    Ob 2318   5.126   3.979  10.021
    1MMT1    Ob 2319   5.212   3.725  10.045
    1MMT1     H 2320   4.865   3.998  10.208
    1MMT1    Al 2321   5.438   3.781   0.000
    1MMT1    Si 2322   5.513   3.592   0.268
    1MMT1    Si 2323   5.524   3.886   0.269
    1MMT1    Op 2324   5.494   3.618   0.106
    1MMT1    Op 2325   5.539   3.893   0.106
    1MMT1    Oh 2326   5.279   3.791   0.099
    1MMT1    Ob 2327   5.147   3.935   0.330
    1MMT1    Ob 2328   5.493   3.733   0.330
    1MMT1    Ob 2329   5.407   3.986   0.306
    1MMT1     H 2330   5.239   3.713   0.143
    1MMT1    Al 2331   5.184   4.230   0.000
    1MMT1    Si 2332   5.260   4.040   0.268
    1MMT1    Si 2333   5.271   4.335   0.269
    1MMT1    Op 2334   5.241   4.067   0.106
    1MMT1    Op 2335   5.286   4.341   0.106
    1MMT1    Oh 2336   5.541   4.239   0.099
    1MMT1    Ob 2337   5.410   4.383   0.330
    1MMT1    Ob 2338   5.240   4.181   0.330
    1MMT1    Ob 2339   5.154   4.434   0.306
    1MMT1     H 2340   5.501   4.162   0.143
    1MMT1    Al 2341   5.445   4.378   0.000
    1MMT1    Si 2342   5.359   3.671  10.082
    1MMT1    Si 2343   5.358   4.273  10.081
    1MMT1    Op 2344   5.379   3.645  10.244
    1MMT1    Op 2345   5.343   4.267  10.244
    1MMT1    Oh 2346   5.604   4.369  10.251
    1MMT1    Ob 2347   5.735   4.225  10.020
    1MMT1    Ob 2348   5.389   4.427  10.021
    1MMT1    Ob 2349   5.475   4.174  10.045
    1MMT1     H 2350   5.644   4.446  10.208
    1MMT1    Al 2351   5.182   3.930   0.000
    1MMT1    Si 2352   5.622   4.120  10.082
    1MMT1    Si 2353   5.612   3.825  10.081
    1MMT1    Op 2354   5.642   4.093  10.244
    1MMT1    Op 2355   5.596   3.819  10.244
    1MMT1    Oh 2356   5.341   3.921  10.251
    1MMT1    Ob 2357   5.473   3.777  10.020
    1MMT1    Ob 2358   5.642   3.979  10.021
    1MMT1    Ob 2359   5.728   3.725  10.045
    1MMT1     H 2360   5.381   3.998  10.208
    1MMT1    Al 2361   5.954   3.781   0.000
    1MMT1    Si 2362   6.029   3.592   0.268
    1MMT1    Si 2363   6.040   3.886   0.269
    1MMT1    Op 2364   6.010   3.618   0.106
    1MMT1   Omg 2365   6.055   3.893   0.106
    1MMT1    Oh 2366   5.795   3.791   0.099
    1MMT1    Ob 2367   5.663   3.935   0.330
    1MMT1    Ob 2368   6.009   3.733   0.330
    1MMT1    Ob 2369   5.923   3.986   0.306
    1MMT1     H 2370   5.755   3.713   0.143
    1MMT1    Al 2371   5.700   4.230   0.000
    1MMT1    Si 2372   5.776   4.040   0.268
    1MMT1    Si 2373   5.787   4.335   0.269
    1MMT1    Op 2374   5.757   4.067   0.106
    1MMT1   Omg 2375   5.802   4.341   0.106
    1MMT1  Ohmg 2376   6.057   4.239   0.099
    1MMT1    Ob 2377   5.926   4.383   0.330
    1MMT1    Ob 2378   5.756   4.181   0.330
    1MMT1    Ob 2379   5.670   4.434   0.306
    1MMT1     H 2380   6.017   4.162   0.143
    1MMT1   Mgo 2381   5.961   4.378   0.000
    1MMT1    Si 2382   5.875   3.671  10.082
    1MMT1    Si 2383   5.874   4.273  10.081
    1MMT1    Op 2384   5.895   3.645  10.244
    1MMT1   Omg 2385   5.859   4.267  10.244
    1MMT1  Ohmg 2386   6.120   4.369  10.251
    1MMT1    Ob 2387   0.059   4.225  10.020
    1MMT1    Ob 2388   5.905   4.427  10.021
    1MMT1    Ob 2389   5.991   4.174  10.045
    1MMT1     H 2390   6.160   4.446  10.208
    1MMT1    Al 2391   5.698   3.930   0.000
    1MMT1    Si 2392   6.138   4.120  10.082
    1MMT1    Si 2393   6.128   3.825  10.081
    1MMT1   Omg 2394   6.158   4.093  10.244
    1MMT1   Omg 2395   6.112   3.819  10.244
    1MMT1    Oh 2396   5.857   3.921  10.251
    1MMT1    Ob 2397   5.989   3.777  10.020
    1MMT1    Ob 2398   6.158   3.979  10.021
    1MMT1    Ob 2399   0.052   3.725  10.045
    1MMT1     H 2400   5.897   3.998  10.208
    1MMT1    Al 2401   0.287   4.678   0.000
    1MMT1    Si 2402   0.363   4.488   0.268
    1MMT1    Si 2403   0.373   4.783   0.269
    1MMT1    Op 2404   0.344   4.515   0.106
    1MMT1    Op 2405   0.389   4.789   0.106
    1MMT1  Ohmg 2406   0.128   4.687   0.099
    1MMT1    Ob 2407   6.189   4.831   0.330
    1MMT1    Ob 2408   0.343   4.629   0.330
    1MMT1    Ob 2409   0.257   4.883   0.306
    1MMT1     H 2410   0.088   4.610   0.143
    1MMT1    Al 2411   0.034   5.126   0.000
    1MMT1    Si 2412   0.110   4.937   0.268
    1MMT1    Si 2413   0.120   5.231   0.269
    1MMT1   Omg 2414   0.090   4.963   0.106
    1MMT1    Op 2415   0.136   5.238   0.106
    1MMT1    Oh 2416   0.391   5.135   0.099
    1MMT1    Ob 2417   0.259   5.280   0.330
    1MMT1    Ob 2418   0.090   5.077   0.330
    1MMT1    Ob 2419   0.004   5.331   0.306
    1MMT1     H 2420   0.351   5.058   0.143
    1MMT1    Al 2421   0.294   5.275   0.000
    1MMT1    Si 2422   0.209   4.568  10.082
    1MMT1    Si 2423   0.208   5.170  10.081
    1MMT1    Op 2424   0.228   4.541  10.244
    1MMT1    Op 2425   0.193   5.163  10.244
    1MMT1    Oh 2426   0.453   5.266  10.251
    1MMT1    Ob 2427   0.585   5.122  10.020
    1MMT1    Ob 2428   0.239   5.324  10.021
    1MMT1    Ob 2429   0.324   5.070  10.045
    1MMT1     H 2430   0.493   5.343  10.208
    1MMT1   Mgo 2431   0.031   4.827   0.000
    1MMT1    Si 2432   0.472   5.016  10.082
    1MMT1    Si 2433   0.461   4.721  10.081
    1MMT1    Op 2434   0.491   4.990  10.244
    1MMT1    Op 2435   0.446   4.715  10.244
    1MMT1  Ohmg 2436   0.190   4.817  10.251
    1MMT1    Ob 2437   0.322   4.673  10.020
    1MMT1    Ob 2438   0.492   4.875  10.021
    1MMT1    Ob 2439   0.578   4.622  10.045
    1MMT1     H 2440   0.230   4.895  10.208
    1MMT1   Mgo 2441   0.803   4.678   0.000
    1MMT1    Si 2442   0.879   4.488   0.268
    1MMT1    Si 2443   0.889   4.783   0.269
    1MMT1   Omg 2444   0.860   4.515   0.106
    1MMT1   Omg 2445   0.905   4.789   0.106
    1MMT1  Ohmg 2446   0.644   4.687   0.099
    1MMT1    Ob 2447   0.513   4.831   0.330
    1MMT1    Ob 2448   0.859   4.629   0.330
    1MMT1    Ob 2449   0.773   4.883   0.306
    1MMT1     H 2450   0.604   4.610   0.143
    1MMT1    Al 2451   0.550   5.126   0.000
    1MMT1    Si 2452   0.626   4.937   0.268
    1MMT1    Si 2453   0.636   5.231   0.269
    1MMT1    Op 2454   0.606   4.963   0.106
    1MMT1    Op 2455   0.652   5.238   0.106
    1MMT1  Ohmg 2456   0.907   5.135   0.099
    1MMT1    Ob 2457   0.775   5.280   0.330
    1MMT1    Ob 2458   0.606   5.077   0.330
    1MMT1    Ob 2459   0.520   5.331   0.306
    1MMT1     H 2460   0.867   5.058   0.143
    1MMT1    Al 2461   0.810   5.275   0.000
    1MMT1    Si 2462   0.725   4.568  10.082
    1MMT1    Si 2463   0.724   5.170  10.081
    1MMT1   Omg 2464   0.744   4.541  10.244
    1MMT1    Op 2465   0.709   5.163  10.244
    1MMT1  Ohmg 2466   0.969   5.266  10.251
    1MMT1    Ob 2467   1.101   5.122  10.020
    1MMT1    Ob 2468   0.755   5.324  10.021
    1MMT1    Ob 2469   0.840   5.070  10.045
    1MMT1     H 2470   1.009   5.343  10.208
    1MMT1    Al 2471   0.547   4.827   0.000
    1MMT1    Si 2472   0.988   5.016  10.082
    1MMT1    Si 2473   0.977   4.721  10.081
    1MMT1   Omg 2474   1.007   4.990  10.244
    1MMT1   Omg 2475   0.962   4.715  10.244
    1MMT1  Ohmg 2476   0.706   4.817  10.251
    1MMT1    Ob 2477   0.838   4.673  10.020
    1MMT1    Ob 2478   1.008   4.875  10.021
    1MMT1    Ob 2479   1.094   4.622  10.045
    1MMT1     H 2480   0.746   4.895  10.208
    1MMT1   Mgo 2481   1.319   4.678   0.000
    1MMT1    Si 2482   1.395   4.488   0.268
    1MMT1    Si 2483   1.405   4.783   0.269
    1MMT1   Omg 2484   1.376   4.515   0.106
    1MMT1   Omg 2485   1.421   4.789   0.106
    1MMT1  Ohmg 2486   1.160   4.687   0.099
    1MMT1    Ob 2487   1.029   4.831   0.330
    1MMT1    Ob 2488   1.375   4.629   0.330
    1MMT1    Ob 2489   1.289   4.883   0.306
    1MMT1     H 2490   1.120   4.610   0.143
    1MMT1   Mgo 2491   1.066   5.126   0.000
    1MMT1    Si 2492   1.142   4.937   0.268
    1MMT1    Si 2493   1.152   5.231   0.269
    1MMT1   Omg 2494   1.122   4.963   0.106
    1MMT1   Omg 2495   1.168   5.238   0.106
    1MMT1    Oh 2496   1.423   5.135   0.099
    1MMT1    Ob 2497   1.291   5.280   0.330
    1MMT1    Ob 2498   1.122   5.077   0.330
    1MMT1    Ob 2499   1.036   5.331   0.306
    1MMT1     H 2500   1.383   5.058   0.143
    1MMT1    Al 2501   1.326   5.275   0.000
    1MMT1    Si 2502   1.241   4.568  10.082
    1MMT1    Si 2503   1.240   5.170  10.081
    1MMT1   Omg 2504   1.260   4.541  10.244
    1MMT1   Omg 2505   1.225   5.163  10.244
    1MMT1    Oh 2506   1.485   5.266  10.251
    1MMT1    Ob 2507   1.617   5.122  10.020
    1MMT1    Ob 2508   1.271   5.324  10.021
    1MMT1    Ob 2509   1.356   5.070  10.045
    1MMT1     H 2510   1.525   5.343  10.208
    1MMT1    Al 2511   1.063   4.827   0.000
    1MMT1    Si 2512   1.504   5.016  10.082
    1MMT1    Si 2513   1.493   4.721  10.081
    1MMT1    Op 2514   1.523   4.990  10.244
    1MMT1   Omg 2515   1.478   4.715  10.244
    1MMT1  Ohmg 2516   1.222   4.817  10.251
    1MMT1    Ob 2517   1.354   4.673  10.020
    1MMT1    Ob 2518   1.524   4.875  10.021
    1MMT1    Ob 2519   1.610   4.622  10.045
    1MMT1     H 2520   1.262   4.895  10.208
    1MMT1    Al 2521   1.835   4.678   0.000
    1MMT1    Si 2522   1.911   4.488   0.268
    1MMT1    Si 2523   1.921   4.783   0.269
    1MMT1    Op 2524   1.892   4.515   0.106
    1MMT1   Omg 2525   1.937   4.789   0.106
    1MMT1    Oh 2526   1.676   4.687   0.099
    1MMT1    Ob 2527   1.545   4.831   0.330
    1MMT1    Ob 2528   1.891   4.629   0.330
    1MMT1    Ob 2529   1.805   4.883   0.306
    1MMT1     H 2530   1.636   4.610   0.143
    1MMT1    Al 2531   1.582   5.126   0.000
    1MMT1    Si 2532   1.658   4.937   0.268
    1MMT1    Si 2533   1.668   5.231   0.269
    1MMT1    Op 2534   1.638   4.963   0.106
    1MMT1   Omg 2535   1.684   5.238   0.106
    1MMT1  Ohmg 2536   1.939   5.135   0.099
    1MMT1    Ob 2537   1.807   5.280   0.330
    1MMT1    Ob 2538   1.638   5.077   0.330
    1MMT1    Ob 2539   1.552   5.331   0.306
    1MMT1     H 2540   1.899   5.058   0.143
    1MMT1   Mgo 2541   1.842   5.275   0.000
    1MMT1    Si 2542   1.757   4.568  10.082
    1MMT1    Si 2543   1.756   5.170  10.081
    1MMT1    Op 2544   1.776   4.541  10.244
    1MMT1   Omg 2545   1.741   5.163  10.244
    1MMT1  Ohmg 2546   2.001   5.266  10.251
    1MMT1    Ob 2547   2.133   5.122  10.020
    1MMT1    Ob 2548   1.787   5.324  10.021
    1MMT1    Ob 2549   1.872   5.070  10.045
    1MMT1     H 2550   2.041   5.343  10.208
    1MMT1    Al 2551   1.579   4.827   0.000
    1MMT1    Si 2552   2.020   5.016  10.082
    1MMT1    Si 2553   2.009   4.721  10.081
    1MMT1   Omg 2554   2.039   4.990  10.244
    1MMT1   Omg 2555   1.994   4.715  10.244
    1MMT1    Oh 2556   1.738   4.817  10.251
    1MMT1    Ob 2557   1.870   4.673  10.020
    1MMT1    Ob 2558   2.040   4.875  10.021
    1MMT1    Ob 2559   2.126   4.622  10.045
    1MMT1     H 2560   1.778   4.895  10.208
    1MMT1    Al 2561   2.351   4.678   0.000
    1MMT1    Si 2562   2.427   4.488   0.268
    1MMT1    Si 2563   2.437   4.783   0.269
    1MMT1   Omg 2564   2.408   4.515   0.106
    1MMT1    Op 2565   2.453   4.789   0.106
    1MMT1  Ohmg 2566   2.192   4.687   0.099
    1MMT1    Ob 2567   2.061   4.831   0.330
    1MMT1    Ob 2568   2.407   4.629   0.330
    1MMT1    Ob 2569   2.321   4.883   0.306
    1MMT1     H 2570   2.152   4.610   0.143
    1MMT1    Al 2571   2.098   5.126   0.000
    1MMT1    Si 2572   2.174   4.937   0.268
    1MMT1    Si 2573   2.184   5.231   0.269
    1MMT1   Omg 2574   2.154   4.963   0.106
    1MMT1   Omg 2575   2.200   5.238   0.106
    1MMT1  Ohmg 2576   2.455   5.135   0.099
    1MMT1    Ob 2577   2.323   5.280   0.330
    1MMT1    Ob 2578   2.154   5.077   0.330
    1MMT1    Ob 2579   2.068   5.331   0.306
    1MMT1     H 2580   2.415   5.058   0.143
    1MMT1   Mgo 2581   2.358   5.275   0.000
    1MMT1    Si 2582   2.273   4.568  10.082
    1MMT1    Si 2583   2.272   5.170  10.081
    1MMT1   Omg 2584   2.292   4.541  10.244
    1MMT1   Omg 2585   2.257   5.163  10.244
    1MMT1  Ohmg 2586   2.517   5.266  10.251
    1MMT1    Ob 2587   2.649   5.122  10.020
    1MMT1    Ob 2588   2.303   5.324  10.021
    1MMT1    Ob 2589   2.388   5.070  10.045
    1MMT1     H 2590   2.557   5.343  10.208
    1MMT1   Mgo 2591   2.095   4.827   0.000
    1MMT1    Si 2592   2.536   5.016  10.082
    1MMT1    Si 2593   2.525   4.721  10.081
    1MMT1    Op 2594   2.555   4.990  10.244
    1MMT1    Op 2595   2.510   4.715  10.244
    1MMT1  Ohmg 2596   2.254   4.817  10.251
    1MMT1    Ob 2597   2.386   4.673  10.020
    1MMT1    Ob 2598   2.556   4.875  10.021
    1MMT1    Ob 2599   2.642   4.622  10.045
    1MMT1     H 2600   2.294   4.895  10.208
    1MMT1   Mgo 2601   2.867   4.678   0.000
    1MMT1    Si 2602   2.943   4.488   0.268
    1MMT1    Si 2603   2.953   4.783   0.269
    1MMT1   Omg 2604   2.924   4.515   0.106
    1MMT1   Omg 2605   2.969   4.789   0.106
    1MMT1  Ohmg 2606   2.708   4.687   0.099
    1MMT1    Ob 2607   2.577   4.831   0.330
    1MMT1    Ob 2608   2.923   4.629   0.330
    1MMT1    Ob 2609   2.837   4.883   0.306
    1MMT1     H 2610   2.668   4.610   0.143
    1MMT1    Al 2611   2.614   5.126   0.000
    1MMT1    Si 2612   2.690   4.937   0.268
    1MMT1    Si 2613   2.700   5.231   0.269
    1MMT1    Op 2614   2.670   4.963   0.106
    1MMT1    Op 2615   2.716   5.238   0.106
    1MMT1    Oh 2616   2.971   5.135   0.099
    1MMT1    Ob 2617   2.839   5.280   0.330
    1MMT1    Ob 2618   2.670   5.077   0.330
    1MMT1    Ob 2619   2.584   5.331   0.306
    1MMT1     H 2620   2.931   5.058   0.143
    1MMT1    Al 2621   2.874   5.275   0.000
    1MMT1    Si 2622   2.789   4.568  10.082
    1MMT1    Si 2623   2.788   5.170  10.081
    1MMT1   Omg 2624   2.808   4.541  10.244
    1MMT1    Op 2625   2.773   5.163  10.244
    1MMT1    Oh 2626   3.033   5.266  10.251
    1MMT1    Ob 2627   3.165   5.122  10.020
    1MMT1    Ob 2628   2.819   5.324  10.021
    1MMT1    Ob 2629   2.904   5.070  10.045
    1MMT1     H 2630   3.073   5.343  10.208
    1MMT1    Al 2631   2.611   4.827   0.000
    1MMT1    Si 2632   3.052   5.016  10.082
    1MMT1    Si 2633   3.041   4.721  10.081
    1MMT1    Op 2634   3.071   4.990  10.244
    1MMT1   Omg 2635   3.026   4.715  10.244
    1MMT1  Ohmg 2636   2.770   4.817  10.251
    1MMT1    Ob 2637   2.902   4.673  10.020
    1MMT1    Ob 2638   3.072   4.875  10.021
    1MMT1    Ob 2639   3.158   4.622  10.045
    1MMT1     H 2640   2.810   4.895  10.208
    1MMT1    Al 2641   3.383   4.678   0.000
    1MMT1    Si 2642   3.459   4.488   0.268
    1MMT1    Si 2643   3.469   4.783   0.269
    1MMT1    Op 2644   3.440   4.515   0.106
    1MMT1   Omg 2645   3.485   4.789   0.106
    1MMT1    Oh 2646   3.224   4.687   0.099
    1MMT1    Ob 2647   3.093   4.831   0.330
    1MMT1    Ob 2648   3.439   4.629   0.330
    1MMT1    Ob 2649   3.353   4.883   0.306
    1MMT1     H 2650   3.184   4.610   0.143
    1MMT1    Al 2651   3.130   5.126   0.000
    1MMT1    Si 2652   3.206   4.937   0.268
    1MMT1    Si 2653   3.216   5.231   0.269
    1MMT1    Op 2654   3.186   4.963   0.106
    1MMT1    Op 2655   3.232   5.238   0.106
    1MMT1    Oh 2656   3.487   5.135   0.099
    1MMT1    Ob 2657   3.355   5.280   0.330
    1MMT1    Ob 2658   3.186   5.077   0.330
    1MMT1    Ob 2659   3.100   5.331   0.306
    1MMT1     H 2660   3.447   5.058   0.143
    1MMT1    Al 2661   3.390   5.275   0.000
    1MMT1    Si 2662   3.305   4.568  10.082
    1MMT1    Si 2663   3.304   5.170  10.081
    1MMT1    Op 2664   3.324   4.541  10.244
    1MMT1    Op 2665   3.289   5.163  10.244
    1MMT1    Oh 2666   3.549   5.266  10.251
    1MMT1    Ob 2667   3.681   5.122  10.020
    1MMT1    Ob 2668   3.335   5.324  10.021
    1MMT1    Ob 2669   3.420   5.070  10.045
    1MMT1     H 2670   3.589   5.343  10.208
    1MMT1    Al 2671   3.127   4.827   0.000
    1MMT1    Si 2672   3.568   5.016  10.082
    1MMT1    Si 2673   3.557   4.721  10.081
    1MMT1   Omg 2674   3.587   4.990  10.244
    1MMT1   Omg 2675   3.542   4.715  10.244
    1MMT1    Oh 2676   3.286   4.817  10.251
    1MMT1    Ob 2677   3.418   4.673  10.020
    1MMT1    Ob 2678   3.588   4.875  10.021
    1MMT1    Ob 2679   3.674   4.622  10.045
    1MMT1     H 2680   3.326   4.895  10.208
    1MMT1    Al 2681   3.899   4.678   0.000
    1MMT1    Si 2682   3.975   4.488   0.268
    1MMT1    Si 2683   3.985   4.783   0.269
    1MMT1   Omg 2684   3.956   4.515   0.106
    1MMT1    Op 2685   4.001   4.789   0.106
    1MMT1  Ohmg 2686   3.740   4.687   0.099
    1MMT1    Ob 2687   3.609   4.831   0.330
    1MMT1    Ob 2688   3.955   4.629   0.330
    1MMT1    Ob 2689   3.869   4.883   0.306
    1MMT1     H 2690   3.700   4.610   0.143
    1MMT1    Al 2691   3.646   5.126   0.000
    1MMT1    Si 2692   3.722   4.937   0.268
    1MMT1    Si 2693   3.732   5.231   0.269
    1MMT1   Omg 2694   3.702   4.963   0.106
    1MMT1    Op 2695   3.748   5.238   0.106
    1MMT1    Oh 2696   4.003   5.135   0.099
    1MMT1    Ob 2697   3.871   5.280   0.330
    1MMT1    Ob 2698   3.702   5.077   0.330
    1MMT1    Ob 2699   3.616   5.331   0.306
    1MMT1     H 2700   3.963   5.058   0.143
    1MMT1    Al 2701   3.906   5.275   0.000
    1MMT1    Si 2702   3.821   4.568  10.082
    1MMT1    Si 2703   3.820   5.170  10.081
    1MMT1   Omg 2704   3.840   4.541  10.244
    1MMT1    Op 2705   3.805   5.163  10.244
    1MMT1    Oh 2706   4.065   5.266  10.251
    1MMT1    Ob 2707   4.197   5.122  10.020
    1MMT1    Ob 2708   3.851   5.324  10.021
    1MMT1    Ob 2709   3.936   5.070  10.045
    1MMT1     H 2710   4.105   5.343  10.208
    1MMT1   Mgo 2711   3.643   4.827   0.000
    1MMT1    Si 2712   4.084   5.016  10.082
    1MMT1    Si 2713   4.073   4.721  10.081
    1MMT1    Op 2714   4.103   4.990  10.244
    1MMT1    Op 2715   4.058   4.715  10.244
    1MMT1  Ohmg 2716   3.802   4.817  10.251
    1MMT1    Ob 2717   3.934   4.673  10.020
    1MMT1    Ob 2718   4.104   4.875  10.021
    1MMT1    Ob 2719   4.190   4.622  10.045
    1MMT1     H 2720   3.842   4.895  10.208
    1MMT1    Al 2721   4.415   4.678   0.000
    1MMT1    Si 2722   4.491   4.488   0.268
    1MMT1    Si 2723   4.501   4.783   0.269
    1MMT1    Op 2724   4.472   4.515   0.106
    1MMT1    Op 2725   4.517   4.789   0.106
    1MMT1    Oh 2726   4.256   4.687   0.099
    1MMT1    Ob 2727   4.125   4.831   0.330
    1MMT1    Ob 2728   4.471   4.629   0.330
    1MMT1    Ob 2729   4.385   4.883   0.306
    1MMT1     H 2730   4.216   4.610   0.143
    1MMT1    Al 2731   4.162   5.126   0.000
    1MMT1    Si 2732   4.238   4.937   0.268
    1MMT1    Si 2733   4.248   5.231   0.269
    1MMT1    Op 2734   4.218   4.963   0.106
    1MMT1    Op 2735   4.264   5.238   0.106
    1MMT1  Ohmg 2736   4.519   5.135   0.099
    1MMT1    Ob 2737   4.387   5.280   0.330
    1MMT1    Ob 2738   4.218   5.077   0.330
    1MMT1    Ob 2739   4.132   5.331   0.306
    1MMT1     H 2740   4.479   5.058   0.143
    1MMT1    Al 2741   4.422   5.275   0.000
    1MMT1    Si 2742   4.337   4.568  10.082
    1MMT1    Si 2743   4.336   5.170  10.081
    1MMT1    Op 2744   4.356   4.541  10.244
    1MMT1    Op 2745   4.321   5.163  10.244
    1MMT1  Ohmg 2746   4.581   5.266  10.251
    1MMT1    Ob 2747   4.713   5.122  10.020
    1MMT1    Ob 2748   4.367   5.324  10.021
    1MMT1    Ob 2749   4.452   5.070  10.045
    1MMT1     H 2750   4.621   5.343  10.208
    1MMT1    Al 2751   4.159   4.827   0.000
    1MMT1    Si 2752   4.600   5.016  10.082
    1MMT1    Si 2753   4.589   4.721  10.081
    1MMT1   Omg 2754   4.619   4.990  10.244
    1MMT1    Op 2755   4.574   4.715  10.244
    1MMT1    Oh 2756   4.318   4.817  10.251
    1MMT1    Ob 2757   4.450   4.673  10.020
    1MMT1    Ob 2758   4.620   4.875  10.021
    1MMT1    Ob 2759   4.706   4.622  10.045
    1MMT1     H 2760   4.358   4.895  10.208
    1MMT1   Mgo 2761   4.931   4.678   0.000
    1MMT1    Si 2762   5.007   4.488   0.268
    1MMT1    Si 2763   5.017   4.783   0.269
    1MMT1   Omg 2764   4.988   4.515   0.106
    1MMT1   Omg 2765   5.033   4.789   0.106
    1MMT1  Ohmg 2766   4.772   4.687   0.099
    1MMT1    Ob 2767   4.641   4.831   0.330
    1MMT1    Ob 2768   4.987   4.629   0.330
    1MMT1    Ob 2769   4.901   4.883   0.306
    1MMT1     H 2770   4.732   4.610   0.143
    1MMT1   Mgo 2771   4.678   5.126   0.000
    1MMT1    Si 2772   4.754   4.937   0.268
    1MMT1    Si 2773   4.764   5.231   0.269
    1MMT1   Omg 2774   4.734   4.963   0.106
    1MMT1   Omg 2775   4.780   5.238   0.106
    1MMT1  Ohmg 2776   5.035   5.135   0.099
    1MMT1    Ob 2777   4.903   5.280   0.330
    1MMT1    Ob 2778   4.734   5.077   0.330
    1MMT1    Ob 2779   4.648   5.331   0.306
    1MMT1     H 2780   4.995   5.058   0.143
    1MMT1    Al 2781   4.938   5.275   0.000
    1MMT1    Si 2782   4.853   4.568  10.082
    1MMT1    Si 2783   4.852   5.170  10.081
    1MMT1   Omg 2784   4.872   4.541  10.244
    1MMT1   Omg 2785   4.837   5.163  10.244
    1MMT1  Ohmg 2786   5.097   5.266  10.251
    1MMT1    Ob 2787   5.229   5.122  10.020
    1MMT1    Ob 2788   4.883   5.324  10.021
    1MMT1    Ob 2789   4.968   5.070  10.045
    1MMT1     H 2790   5.137   5.343  10.208
    1MMT1    Al 2791   4.675   4.827   0.000
    1MMT1    Si 2792   5.116   5.016  10.082
    1MMT1    Si 2793   5.105   4.721  10.081
    1MMT1   Omg 2794   5.135   4.990  10.244
    1MMT1   Omg 2795   5.090   4.715  10.244
    1MMT1  Ohmg 2796   4.834   4.817  10.251
    1MMT1    Ob 2797   4.966   4.673  10.020
    1MMT1    Ob 2798   5.136   4.875  10.021
    1MMT1    Ob 2799   5.222   4.622  10.045
    1MMT1     H 2800   4.874   4.895  10.208
    1MMT1   Mgo 2801   5.447   4.678   0.000
    1MMT1    Si 2802   5.523   4.488   0.268
    1MMT1    Si 2803   5.533   4.783   0.269
    1MMT1   Omg 2804   5.504   4.515   0.106
    1MMT1   Omg 2805   5.549   4.789   0.106
    1MMT1  Ohmg 2806   5.288   4.687   0.099
    1MMT1    Ob 2807   5.157   4.831   0.330
    1MMT1    Ob 2808   5.503   4.629   0.330
    1MMT1    Ob 2809   5.417   4.883   0.306
    1MMT1     H 2810   5.248   4.610   0.143
    1MMT1   Mgo 2811   5.194   5.126   0.000
    1MMT1    Si 2812   5.270   4.937   0.268
    1MMT1    Si 2813   5.280   5.231   0.269
    1MMT1   Omg 2814   5.250   4.963   0.106
    1MMT1   Omg 2815   5.296   5.238   0.106
    1MMT1    Oh 2816   5.551   5.135   0.099
    1MMT1    Ob 2817   5.419   5.280   0.330
    1MMT1    Ob 2818   5.250   5.077   0.330
    1MMT1    Ob 2819   5.164   5.331   0.306
    1MMT1     H 2820   5.511   5.058   0.143
    1MMT1    Al 2821   5.454   5.275   0.000
    1MMT1    Si 2822   5.369   4.568  10.082
    1MMT1    Si 2823   5.368   5.170  10.081
    1MMT1   Omg 2824   5.388   4.541  10.244
    1MMT1   Omg 2825   5.353   5.163  10.244
    1MMT1    Oh 2826   5.613   5.266  10.251
    1MMT1    Ob 2827   5.745   5.122  10.020
    1MMT1    Ob 2828   5.399   5.324  10.021
    1MMT1    Ob 2829   5.484   5.070  10.045
    1MMT1     H 2830   5.653   5.343  10.208
    1MMT1    Al 2831   5.191   4.827   0.000
    1MMT1    Si 2832   5.632   5.016  10.082
    1MMT1    Si 2833   5.621   4.721  10.081
    1MMT1    Op 2834   5.651   4.990  10.244
    1MMT1   Omg 2835   5.606   4.715  10.244
    1MMT1  Ohmg 2836   5.350   4.817  10.251
    1MMT1    Ob 2837   5.482   4.673  10.020
    1MMT1    Ob 2838   5.652   4.875  10.021
    1MMT1    Ob 2839   5.738   4.622  10.045
    1MMT1     H 2840   5.390   4.895  10.208
    1MMT1    Al 2841   5.963   4.678   0.000
    1MMT1    Si 2842   6.039   4.488   0.268
    1MMT1    Si 2843   6.049   4.783   0.269
    1MMT1   Omg 2844   6.020   4.515   0.106
    1MMT1   Omg 2845   6.065   4.789   0.106
    1MMT1    Oh 2846   5.804   4.687   0.099
    1MMT1    Ob 2847   5.673   4.831   0.330
    1MMT1    Ob 2848   6.019   4.629   0.330
    1MMT1    Ob 2849   5.933   4.883   0.306
    1MMT1     H 2850   5.764   4.610   0.143
    1MMT1    Al 2851   5.710   5.126   0.000
    1MMT1    Si 2852   5.786   4.937   0.268
    1MMT1    Si 2853   5.796   5.231   0.269
    1MMT1    Op 2854   5.766   4.963   0.106
    1MMT1    Op 2855   5.812   5.238   0.106
    1MMT1    Oh 2856   6.067   5.135   0.099
    1MMT1    Ob 2857   5.935   5.280   0.330
    1MMT1    Ob 2858   5.766   5.077   0.330
    1MMT1    Ob 2859   5.680   5.331   0.306
    1MMT1     H 2860   6.027   5.058   0.143
    1MMT1    Al 2861   5.970   5.275   0.000
    1MMT1    Si 2862   5.885   4.568  10.082
    1MMT1    Si 2863   5.884   5.170  10.081
    1MMT1   Omg 2864   5.904   4.541  10.244
    1MMT1    Op 2865   5.869   5.163  10.244
    1MMT1    Oh 2866   6.129   5.266  10.251
    1MMT1    Ob 2867   0.069   5.122  10.020
    1MMT1    Ob 2868   5.915   5.324  10.021
    1MMT1    Ob 2869   6.000   5.070  10.045
    1MMT1     H 2870   6.169   5.343  10.208
    1MMT1    Al 2871   5.707   4.827   0.000
    1MMT1    Si 2872   6.148   5.016  10.082
    1MMT1    Si 2873   6.137   4.721  10.081
    1MMT1   Omg 2874   6.167   4.990  10.244
    1MMT1   Omg 2875   6.122   4.715  10.244
    1MMT1    Oh 2876   5.866   4.817  10.251
    1MMT1    Ob 2877   5.998   4.673  10.020
    1MMT1    Ob 2878   6.168   4.875  10.021
    1MMT1    Ob 2879   0.062   4.622  10.045
    1MMT1     H 2880   5.906   4.895  10.208
    1MMT1    Al 2881   0.297   5.574   0.000
    1MMT1    Si 2882   0.372   5.385   0.268
    1MMT1    Si 2883   0.383   5.680   0.269
    1MMT1    Op 2884   0.353   5.412   0.106
    1MMT1   Omg 2885   0.398   5.686   0.106
    1MMT1    Oh 2886   0.138   5.584   0.099
    1MMT1    Ob 2887   0.006   5.728   0.330
    1MMT1    Ob 2888   0.353   5.526   0.330
    1MMT1    Ob 2889   0.267   5.779   0.306
    1MMT1     H 2890   0.098   5.507   0.143
    1MMT1   Mgo 2891   0.044   6.023   0.000
    1MMT1    Si 2892   0.119   5.833   0.268
    1MMT1    Si 2893   0.130   6.128   0.269
    1MMT1   Omg 2894   0.100   5.860   0.106
    1MMT1   Omg 2895   0.145   6.134   0.106
    1MMT1    Oh 2896   0.401   6.032   0.099
    1MMT1    Ob 2897   0.269   6.176   0.330
    1MMT1    Ob 2898   0.099   5.974   0.330
    1MMT1    Ob 2899   0.014   6.228   0.306
    1MMT1     H 2900   0.361   5.955   0.143
    1MMT1    Al 2901   0.304   6.171   0.000
    1MMT1    Si 2902   0.219   5.465  10.082
    1MMT1    Si 2903   0.218   6.066  10.081
    1MMT1    Op 2904   0.238   5.438  10.244
    1MMT1   Omg 2905   0.203   6.060  10.244
    1MMT1    Oh 2906   0.463   6.162  10.251
    1MMT1    Ob 2907   0.595   6.018  10.020
    1MMT1    Ob 2908   0.248   6.220  10.021
    1MMT1    Ob 2909   0.334   5.967  10.045
    1MMT1     H 2910   0.503   6.239  10.208
    1MMT1    Al 2911   0.041   5.723   0.000
    1MMT1    Si 2912   0.482   5.913  10.082
    1MMT1    Si 2913   0.471   5.618  10.081
    1MMT1   Omg 2914   0.501   5.886  10.244
    1MMT1   Omg 2915   0.456   5.612  10.244
    1MMT1    Oh 2916   0.200   5.714  10.251
    1MMT1    Ob 2917   0.332   5.570  10.020
    1MMT1    Ob 2918   0.502   5.772  10.021
    1MMT1    Ob 2919   0.587   5.518  10.045
    1MMT1     H 2920   0.240   5.791  10.208
    1MMT1    Al 2921   0.813   5.574   0.000
    1MMT1    Si 2922   0.888   5.385   0.268
    1MMT1    Si 2923   0.899   5.680   0.269
    1MMT1    Op 2924   0.869   5.412   0.106
    1MMT1    Op 2925   0.914   5.686   0.106
    1MMT1  Ohmg 2926   0.654   5.584   0.099
    1MMT1    Ob 2927   0.522   5.728   0.330
    1MMT1    Ob 2928   0.869   5.526   0.330
    1MMT1    Ob 2929   0.783   5.779   0.306
    1MMT1     H 2930   0.614   5.507   0.143
    1MMT1    Al 2931   0.560   6.023   0.000
    1MMT1    Si 2932   0.635   5.833   0.268
    1MMT1    Si 2933   0.646   6.128   0.269
    1MMT1   Omg 2934   0.616   5.860   0.106
    1MMT1   Omg 2935   0.661   6.134   0.106
    1MMT1  Ohmg 2936   0.917   6.032   0.099
    1MMT1    Ob 2937   0.785   6.176   0.330
    1MMT1    Ob 2938   0.615   5.974   0.330
    1MMT1    Ob 2939   0.530   6.228   0.306
    1MMT1     H 2940   0.877   5.955   0.143
    1MMT1   Mgo 2941   0.820   6.171   0.000
    1MMT1    Si 2942   0.735   5.465  10.082
    1MMT1    Si 2943   0.734   6.066  10.081
    1MMT1    Op 2944   0.754   5.438  10.244
    1MMT1   Omg 2945   0.719   6.060  10.244
    1MMT1  Ohmg 2946   0.979   6.162  10.251
    1MMT1    Ob 2947   1.111   6.018  10.020
    1MMT1    Ob 2948   0.764   6.220  10.021
    1MMT1    Ob 2949   0.850   5.967  10.045
    1MMT1     H 2950   1.019   6.239  10.208
    1MMT1   Mgo 2951   0.557   5.723   0.000
    1MMT1    Si 2952   0.998   5.913  10.082
    1MMT1    Si 2953   0.987   5.618  10.081
    1MMT1    Op 2954   1.017   5.886  10.244
    1MMT1    Op 2955   0.972   5.612  10.244
    1MMT1  Ohmg 2956   0.716   5.714  10.251
    1MMT1    Ob 2957   0.848   5.570  10.020
    1MMT1    Ob 2958   1.018   5.772  10.021
    1MMT1    Ob 2959   1.103   5.518  10.045
    1MMT1     H 2960   0.756   5.791  10.208
    1MMT1    Al 2961   1.329   5.574   0.000
    1MMT1    Si 2962   1.404   5.385   0.268
    1MMT1    Si 2963   1.415   5.680   0.269
    1MMT1    Op 2964   1.385   5.412   0.106
    1MMT1    Op 2965   1.430   5.686   0.106
    1MMT1    Oh 2966   1.170   5.584   0.099
    1MMT1    Ob 2967   1.038   5.728   0.330
    1MMT1    Ob 2968   1.385   5.526   0.330
    1MMT1    Ob 2969   1.299   5.779   0.306
    1MMT1     H 2970   1.130   5.507   0.143
    1MMT1    Al 2971   1.076   6.023   0.000
    1MMT1    Si 2972   1.151   5.833   0.268
    1MMT1    Si 2973   1.162   6.128   0.269
    1MMT1    Op 2974   1.132   5.860   0.106
    1MMT1    Op 2975   1.177   6.134   0.106
    1MMT1  Ohmg 2976   1.433   6.032   0.099
    1MMT1    Ob 2977   1.301   6.176   0.330
    1MMT1    Ob 2978   1.131   5.974   0.330
    1MMT1    Ob 2979   1.046   6.228   0.306
    1MMT1     H 2980   1.393   5.955   0.143
    1MMT1    Al 2981   1.336   6.171   0.000
    1MMT1    Si 2982   1.251   5.465  10.082
    1MMT1    Si 2983   1.250   6.066  10.081
    1MMT1    Op 2984   1.270   5.438  10.244
    1MMT1    Op 2985   1.235   6.060  10.244
    1MMT1  Ohmg 2986   1.495   6.162  10.251
    1MMT1    Ob 2987   1.627   6.018  10.020
    1MMT1    Ob 2988   1.280   6.220  10.021
    1MMT1    Ob 2989   1.366   5.967  10.045
    1MMT1     H 2990   1.535   6.239  10.208
    1MMT1    Al 2991   1.073   5.723   0.000
    1MMT1    Si 2992   1.514   5.913  10.082
    1MMT1    Si 2993   1.503   5.618  10.081
    1MMT1   Omg 2994   1.533   5.886  10.244
    1MMT1    Op 2995   1.488   5.612  10.244
    1MMT1    Oh 2996   1.232   5.714  10.251
    1MMT1    Ob 2997   1.364   5.570  10.020
    1MMT1    Ob 2998   1.534   5.772  10.021
    1MMT1    Ob 2999   1.619   5.518  10.045
    1MMT1     H 3000   1.272   5.791  10.208
    1MMT1    Al 3001   1.845   5.574   0.000
    1MMT1    Si 3002   1.920   5.385   0.268
    1MMT1    Si 3003   1.931   5.680   0.269
    1MMT1   Omg 3004   1.901   5.412   0.106
    1MMT1    Op 3005   1.946   5.686   0.106
    1MMT1    Oh 3006   1.686   5.584   0.099
    1MMT1    Ob 3007   1.554   5.728   0.330
    1MMT1    Ob 3008   1.901   5.526   0.330
    1MMT1    Ob 3009   1.815   5.779   0.306
    1MMT1     H 3010   1.646   5.507   0.143
    1MMT1   Mgo 3011   1.592   6.023   0.000
    1MMT1    Si 3012   1.667   5.833   0.268
    1MMT1    Si 3013   1.678   6.128   0.269
    1MMT1   Omg 3014   1.648   5.860   0.106
    1MMT1   Omg 3015   1.693   6.134   0.106
    1MMT1  Ohmg 3016   1.949   6.032   0.099
    1MMT1    Ob 3017   1.817   6.176   0.330
    1MMT1    Ob 3018   1.647   5.974   0.330
    1MMT1    Ob 3019   1.562   6.228   0.306
    1MMT1     H 3020   1.909   5.955   0.143
    1MMT1    Al 3021   1.852   6.171   0.000
    1MMT1    Si 3022   1.767   5.465  10.082
    1MMT1    Si 3023   1.766   6.066  10.081
    1MMT1   Omg 3024   1.786   5.438  10.244
    1MMT1   Omg 3025   1.751   6.060  10.244
    1MMT1  Ohmg 3026   2.011   6.162  10.251
    1MMT1    Ob 3027   2.143   6.018  10.020
    1MMT1    Ob 3028   1.796   6.220  10.021
    1MMT1    Ob 3029   1.882   5.967  10.045
    1MMT1     H 3030   2.051   6.239  10.208
    1MMT1    Al 3031   1.589   5.723   0.000
    1MMT1    Si 3032   2.030   5.913  10.082
    1MMT1    Si 3033   2.019   5.618  10.081
    1MMT1   Omg 3034   2.049   5.886  10.244
    1MMT1    Op 3035   2.004   5.612  10.244
    1MMT1    Oh 3036   1.748   5.714  10.251
    1MMT1    Ob 3037   1.880   5.570  10.020
    1MMT1    Ob 3038   2.050   5.772  10.021
    1MMT1    Ob 3039   2.135   5.518  10.045
    1MMT1     H 3040   1.788   5.791  10.208
    1MMT1    Al 3041   2.361   5.574   0.000
    1MMT1    Si 3042   2.436   5.385   0.268
    1MMT1    Si 3043   2.447   5.680   0.269
    1MMT1   Omg 3044   2.417   5.412   0.106
    1MMT1   Omg 3045   2.462   5.686   0.106
    1MMT1    Oh 3046   2.202   5.584   0.099
    1MMT1    Ob 3047   2.070   5.728   0.330
    1MMT1    Ob 3048   2.417   5.526   0.330
    1MMT1    Ob 3049   2.331   5.779   0.306
    1MMT1     H 3050   2.162   5.507   0.143
    1MMT1   Mgo 3051   2.108   6.023   0.000
    1MMT1    Si 3052   2.183   5.833   0.268
    1MMT1    Si 3053   2.194   6.128   0.269
    1MMT1   Omg 3054   2.164   5.860   0.106
    1MMT1   Omg 3055   2.209   6.134   0.106
    1MMT1    Oh 3056   2.465   6.032   0.099
    1MMT1    Ob 3057   2.333   6.176   0.330
    1MMT1    Ob 3058   2.163   5.974   0.330
    1MMT1    Ob 3059   2.078   6.228   0.306
    1MMT1     H 3060   2.425   5.955   0.143
    1MMT1    Al 3061   2.368   6.171   0.000
    1MMT1    Si 3062   2.283   5.465  10.082
    1MMT1    Si 3063   2.282   6.066  10.081
    1MMT1   Omg 3064   2.302   5.438  10.244
    1MMT1   Omg 3065   2.267   6.060  10.244
    1MMT1    Oh 3066   2.527   6.162  10.251
    1MMT1    Ob 3067   2.659   6.018  10.020
    1MMT1    Ob 3068   2.312   6.220  10.021
    1MMT1    Ob 3069   2.398   5.967  10.045
    1MMT1     H 3070   2.567   6.239  10.208
    1MMT1    Al 3071   2.105   5.723   0.000
    1MMT1    Si 3072   2.546   5.913  10.082
    1MMT1    Si 3073   2.535   5.618  10.081
    1MMT1   Omg 3074   2.565   5.886  10.244
    1MMT1   Omg 3075   2.520   5.612  10.244
    1MMT1    Oh 3076   2.264   5.714  10.251
    1MMT1    Ob 3077   2.396   5.570  10.020
    1MMT1    Ob 3078   2.566   5.772  10.021
    1MMT1    Ob 3079   2.651   5.518  10.045
    1MMT1     H 3080   2.304   5.791  10.208
    1MMT1    Al 3081   2.877   5.574   0.000
    1MMT1    Si 3082   2.952   5.385   0.268
    1MMT1    Si 3083   2.963   5.680   0.269
    1MMT1    Op 3084   2.933   5.412   0.106
    1MMT1    Op 3085   2.978   5.686   0.106
    1MMT1  Ohmg 3086   2.718   5.584   0.099
    1MMT1    Ob 3087   2.586   5.728   0.330
    1MMT1    Ob 3088   2.933   5.526   0.330
    1MMT1    Ob 3089   2.847   5.779   0.306
    1MMT1     H 3090   2.678   5.507   0.143
    1MMT1    Al 3091   2.624   6.023   0.000
    1MMT1    Si 3092   2.699   5.833   0.268
    1MMT1    Si 3093   2.710   6.128   0.269
    1MMT1   Omg 3094   2.680   5.860   0.106
    1MMT1   Omg 3095   2.725   6.134   0.106
    1MMT1  Ohmg 3096   2.981   6.032   0.099
    1MMT1    Ob 3097   2.849   6.176   0.330
    1MMT1    Ob 3098   2.679   5.974   0.330
    1MMT1    Ob 3099   2.594   6.228   0.306
    1MMT1     H 3100   2.941   5.955   0.143
    1MMT1   Mgo 3101   2.884   6.171   0.000
    1MMT1    Si 3102   2.799   5.465  10.082
    1MMT1    Si 3103   2.798   6.066  10.081
    1MMT1    Op 3104   2.818   5.438  10.244
    1MMT1   Omg 3105   2.783   6.060  10.244
    1MMT1  Ohmg 3106   3.043   6.162  10.251
    1MMT1    Ob 3107   3.175   6.018  10.020
    1MMT1    Ob 3108   2.828   6.220  10.021
    1MMT1    Ob 3109   2.914   5.967  10.045
    1MMT1     H 3110   3.083   6.239  10.208
    1MMT1   Mgo 3111   2.621   5.723   0.000
    1MMT1    Si 3112   3.062   5.913  10.082
    1MMT1    Si 3113   3.051   5.618  10.081
    1MMT1    Op 3114   3.081   5.886  10.244
    1MMT1    Op 3115   3.036   5.612  10.244
    1MMT1  Ohmg 3116   2.780   5.714  10.251
    1MMT1    Ob 3117   2.912   5.570  10.020
    1MMT1    Ob 3118   3.082   5.772  10.021
    1MMT1    Ob 3119   3.167   5.518  10.045
    1MMT1     H 3120   2.820   5.791  10.208
    1MMT1    Al 3121   3.393   5.574   0.000
    1MMT1    Si 3122   3.468   5.385   0.268
    1MMT1    Si 3123   3.479   5.680   0.269
    1MMT1    Op 3124   3.449   5.412   0.106
    1MMT1    Op 3125   3.494   5.686   0.106
    1MMT1    Oh 3126   3.234   5.584   0.099
    1MMT1    Ob 3127   3.102   5.728   0.330
    1MMT1    Ob 3128   3.449   5.526   0.330
    1MMT1    Ob 3129   3.363   5.779   0.306
    1MMT1     H 3130   3.194   5.507   0.143
    1MMT1    Al 3131   3.140   6.023   0.000
    1MMT1    Si 3132   3.215   5.833   0.268
    1MMT1    Si 3133   3.226   6.128   0.269
    1MMT1    Op 3134   3.196   5.860   0.106
    1MMT1   Omg 3135   3.241   6.134   0.106
    1MMT1  Ohmg 3136   3.497   6.032   0.099
    1MMT1    Ob 3137   3.365   6.176   0.330
    1MMT1    Ob 3138   3.195   5.974   0.330
    1MMT1    Ob 3139   3.110   6.228   0.306
    1MMT1     H 3140   3.457   5.955   0.143
    1MMT1   Mgo 3141   3.400   6.171   0.000
    1MMT1    Si 3142   3.315   5.465  10.082
    1MMT1    Si 3143   3.314   6.066  10.081
    1MMT1    Op 3144   3.334   5.438  10.244
    1MMT1   Omg 3145   3.299   6.060  10.244
    1MMT1  Ohmg 3146   3.559   6.162  10.251
    1MMT1    Ob 3147   3.691   6.018  10.020
    1MMT1    Ob 3148   3.344   6.220  10.021
    1MMT1    Ob 3149   3.430   5.967  10.045
    1MMT1     H 3150   3.599   6.239  10.208
    1MMT1    Al 3151   3.137   5.723   0.000
    1MMT1    Si 3152   3.578   5.913  10.082
    1MMT1    Si 3153   3.567   5.618  10.081
    1MMT1    Op 3154   3.597   5.886  10.244
    1MMT1    Op 3155   3.552   5.612  10.244
    1MMT1    Oh 3156   3.296   5.714  10.251
    1MMT1    Ob 3157   3.428   5.570  10.020
    1MMT1    Ob 3158   3.598   5.772  10.021
    1MMT1    Ob 3159   3.683   5.518  10.045
    1MMT1     H 3160   3.336   5.791  10.208
    1MMT1    Al 3161   3.909   5.574   0.000
    1MMT1    Si 3162   3.984   5.385   0.268
    1MMT1    Si 3163   3.995   5.680   0.269
    1MMT1    Op 3164   3.965   5.412   0.106
    1MMT1    Op 3165   4.010   5.686   0.106
    1MMT1    Oh 3166   3.750   5.584   0.099
    1MMT1    Ob 3167   3.618   5.728   0.330
    1MMT1    Ob 3168   3.965   5.526   0.330
    1MMT1    Ob 3169   3.879   5.779   0.306
    1MMT1     H 3170   3.710   5.507   0.143
    1MMT1    Al 3171   3.656   6.023   0.000
    1MMT1    Si 3172   3.731   5.833   0.268
    1MMT1    Si 3173   3.742   6.128   0.269
    1MMT1    Op 3174   3.712   5.860   0.106
    1MMT1    Op 3175   3.757   6.134   0.106
    1MMT1    Oh 3176   4.013   6.032   0.099
    1MMT1    Ob 3177   3.881   6.176   0.330
    1MMT1    Ob 3178   3.711   5.974   0.330
    1MMT1    Ob 3179   3.626   6.228   0.306
    1MMT1     H 3180   3.973   5.955   0.143
    1MMT1    Al 3181   3.916   6.171   0.000
    1MMT1    Si 3182   3.831   5.465  10.082
    1MMT1    Si 3183   3.830   6.066  10.081
    1MMT1    Op 3184   3.850   5.438  10.244
    1MMT1    Op 3185   3.815   6.060  10.244
    1MMT1    Oh 3186   4.075   6.162  10.251
    1MMT1    Ob 3187   4.207   6.018  10.020
    1MMT1    Ob 3188   3.860   6.220  10.021
    1MMT1    Ob 3189   3.946   5.967  10.045
    1MMT1     H 3190   4.115   6.239  10.208
    1MMT1    Al 3191   3.653   5.723   0.000
    1MMT1    Si 3192   4.094   5.913  10.082
    1MMT1    Si 3193   4.083   5.618  10.081
    1MMT1    Op 3194   4.113   5.886  10.244
    1MMT1    Op 3195   4.068   5.612  10.244
    1MMT1    Oh 3196   3.812   5.714  10.251
    1MMT1    Ob 3197   3.944   5.570  10.020
    1MMT1    Ob 3198   4.114   5.772  10.021
    1MMT1    Ob 3199   4.199   5.518  10.045
    1MMT1     H 3200   3.852   5.791  10.208
    1MMT1   Mgo 3201   4.425   5.574   0.000
    1MMT1    Si 3202   4.500   5.385   0.268
    1MMT1    Si 3203   4.511   5.680   0.269
    1MMT1   Omg 3204   4.481   5.412   0.106
    1MMT1   Omg 3205   4.526   5.686   0.106
    1MMT1  Ohmg 3206   4.266   5.584   0.099
    1MMT1    Ob 3207   4.134   5.728   0.330
    1MMT1    Ob 3208   4.481   5.526   0.330
    1MMT1    Ob 3209   4.395   5.779   0.306
    1MMT1     H 3210   4.226   5.507   0.143
    1MMT1    Al 3211   4.172   6.023   0.000
    1MMT1    Si 3212   4.247   5.833   0.268
    1MMT1    Si 3213   4.258   6.128   0.269
    1MMT1    Op 3214   4.228   5.860   0.106
    1MMT1    Op 3215   4.273   6.134   0.106
    1MMT1    Oh 3216   4.529   6.032   0.099
    1MMT1    Ob 3217   4.397   6.176   0.330
    1MMT1    Ob 3218   4.227   5.974   0.330
    1MMT1    Ob 3219   4.142   6.228   0.306
    1MMT1     H 3220   4.489   5.955   0.143
    1MMT1    Al 3221   4.432   6.171   0.000
    1MMT1    Si 3222   4.347   5.465  10.082
    1MMT1    Si 3223   4.346   6.066  10.081
    1MMT1   Omg 3224   4.366   5.438  10.244
    1MMT1    Op 3225   4.331   6.060  10.244
    1MMT1    Oh 3226   4.591   6.162  10.251
    1MMT1    Ob 3227   4.723   6.018  10.020
    1MMT1    Ob 3228   4.376   6.220  10.021
    1MMT1    Ob 3229   4.462   5.967  10.045
    1MMT1     H 3230   4.631   6.239  10.208
    1MMT1    Al 3231   4.169   5.723   0.000
    1MMT1    Si 3232   4.610   5.913  10.082
    1MMT1    Si 3233   4.599   5.618  10.081
    1MMT1    Op 3234   4.629   5.886  10.244
    1MMT1   Omg 3235   4.584   5.612  10.244
    1MMT1  Ohmg 3236   4.328   5.714  10.251
    1MMT1    Ob 3237   4.460   5.570  10.020
    1MMT1    Ob 3238   4.630   5.772  10.021
    1MMT1    Ob 3239   4.715   5.518  10.045
    1MMT1     H 3240   4.368   5.791  10.208
    1MMT1    Al 3241   4.941   5.574   0.000
    1MMT1    Si 3242   5.016   5.385   0.268
    1MMT1    Si 3243   5.027   5.680   0.269
    1MMT1    Op 3244   4.997   5.412   0.106
    1MMT1   Omg 3245   5.042   5.686   0.106
    1MMT1    Oh 3246   4.782   5.584   0.099
    1MMT1    Ob 3247   4.650   5.728   0.330
    1MMT1    Ob 3248   4.997   5.526   0.330
    1MMT1    Ob 3249   4.911   5.779   0.306
    1MMT1     H 3250   4.742   5.507   0.143
    1MMT1    Al 3251   4.688   6.023   0.000
    1MMT1    Si 3252   4.763   5.833   0.268
    1MMT1    Si 3253   4.774   6.128   0.269
    1MMT1    Op 3254   4.744   5.860   0.106
    1MMT1   Omg 3255   4.789   6.134   0.106
    1MMT1  Ohmg 3256   5.045   6.032   0.099
    1MMT1    Ob 3257   4.913   6.176   0.330
    1MMT1    Ob 3258   4.743   5.974   0.330
    1MMT1    Ob 3259   4.658   6.228   0.306
    1MMT1     H 3260   5.005   5.955   0.143
    1MMT1   Mgo 3261   4.948   6.171   0.000
    1MMT1    Si 3262   4.863   5.465  10.082
    1MMT1    Si 3263   4.862   6.066  10.081
    1MMT1    Op 3264   4.882   5.438  10.244
    1MMT1   Omg 3265   4.847   6.060  10.244
    1MMT1  Ohmg 3266   5.107   6.162  10.251
    1MMT1    Ob 3267   5.239   6.018  10.020
    1MMT1    Ob 3268   4.892   6.220  10.021
    1MMT1    Ob 3269   4.978   5.967  10.045
    1MMT1     H 3270   5.147   6.239  10.208
    1MMT1    Al 3271   4.685   5.723   0.000
    1MMT1    Si 3272   5.126   5.913  10.082
    1MMT1    Si 3273   5.115   5.618  10.081
    1MMT1   Omg 3274   5.145   5.886  10.244
    1MMT1   Omg 3275   5.100   5.612  10.244
    1MMT1    Oh 3276   4.844   5.714  10.251
    1MMT1    Ob 3277   4.976   5.570  10.020
    1MMT1    Ob 3278   5.146   5.772  10.021
    1MMT1    Ob 3279   5.231   5.518  10.045
    1MMT1     H 3280   4.884   5.791  10.208
    1MMT1    Al 3281   5.457   5.574   0.000
    1MMT1    Si 3282   5.532   5.385   0.268
    1MMT1    Si 3283   5.543   5.680   0.269
    1MMT1    Op 3284   5.513   5.412   0.106
    1MMT1   Omg 3285   5.558   5.686   0.106
    1MMT1  Ohmg 3286   5.298   5.584   0.099
    1MMT1    Ob 3287   5.166   5.728   0.330
    1MMT1    Ob 3288   5.513   5.526   0.330
    1MMT1    Ob 3289   5.427   5.779   0.306
    1MMT1     H 3290   5.258   5.507   0.143
    1MMT1    Al 3291   5.204   6.023   0.000
    1MMT1    Si 3292   5.279   5.833   0.268
    1MMT1    Si 3293   5.290   6.128   0.269
    1MMT1   Omg 3294   5.260   5.860   0.106
    1MMT1    Op 3295   5.305   6.134   0.106
    1MMT1    Oh 3296   5.561   6.032   0.099
    1MMT1    Ob 3297   5.429   6.176   0.330
    1MMT1    Ob 3298   5.259   5.974   0.330
    1MMT1    Ob 3299   5.174   6.228   0.306
    1MMT1     H 3300   5.521   5.955   0.143
    1MMT1    Al 3301   5.464   6.171   0.000
    1MMT1    Si 3302   5.379   5.465  10.082
    1MMT1    Si 3303   5.378   6.066  10.081
    1MMT1    Op 3304   5.398   5.438  10.244
    1MMT1    Op 3305   5.363   6.060  10.244
    1MMT1    Oh 3306   5.623   6.162  10.251
    1MMT1    Ob 3307   5.755   6.018  10.020
    1MMT1    Ob 3308   5.408   6.220  10.021
    1MMT1    Ob 3309   5.494   5.967  10.045
    1MMT1     H 3310   5.663   6.239  10.208
    1MMT1   Mgo 3311   5.201   5.723   0.000
    1MMT1    Si 3312   5.642   5.913  10.082
    1MMT1    Si 3313   5.631   5.618  10.081
    1MMT1   Omg 3314   5.661   5.886  10.244
    1MMT1   Omg 3315   5.616   5.612  10.244
    1MMT1  Ohmg 3316   5.360   5.714  10.251
    1MMT1    Ob 3317   5.492   5.570  10.020
    1MMT1    Ob 3318   5.662   5.772  10.021
    1MMT1    Ob 3319   5.747   5.518  10.045
    1MMT1     H 3320   5.400   5.791  10.208
    1MMT1    Al 3321   5.973   5.574   0.000
    1MMT1    Si 3322   6.048   5.385   0.268
    1MMT1    Si 3323   6.059   5.680   0.269
    1MMT1    Op 3324   6.029   5.412   0.106
    1MMT1    Op 3325   6.074   5.686   0.106
    1MMT1  Ohmg 3326   5.814   5.584   0.099
    1MMT1    Ob 3327   5.682   5.728   0.330
    1MMT1    Ob 3328   6.029   5.526   0.330
    1MMT1    Ob 3329   5.943   5.779   0.306
    1MMT1     H 3330   5.774   5.507   0.143
    1MMT1    Al 3331   5.720   6.023   0.000
    1MMT1    Si 3332   5.795   5.833   0.268
    1MMT1    Si 3333   5.806   6.128   0.269
    1MMT1   Omg 3334   5.776   5.860   0.106
    1MMT1    Op 3335   5.821   6.134   0.106
    1MMT1  Ohmg 3336   6.077   6.032   0.099
    1MMT1    Ob 3337   5.945   6.176   0.330
    1MMT1    Ob 3338   5.775   5.974   0.330
    1MMT1    Ob 3339   5.690   6.228   0.306
    1MMT1     H 3340   6.037   5.955   0.143
    1MMT1    Al 3341   5.980   6.171   0.000
    1MMT1    Si 3342   5.895   5.465  10.082
    1MMT1    Si 3343   5.894   6.066  10.081
    1MMT1    Op 3344   5.914   5.438  10.244
    1MMT1    Op 3345   5.879   6.060  10.244
    1MMT1  Ohmg 3346   6.139   6.162  10.251
    1MMT1    Ob 3347   0.079   6.018  10.020
    1MMT1    Ob 3348   5.924   6.220  10.021
    1MMT1    Ob 3349   6.010   5.967  10.045
    1MMT1     H 3350   6.179   6.239  10.208
    1MMT1   Mgo 3351   5.717   5.723   0.000
    1MMT1    Si 3352   6.158   5.913  10.082
    1MMT1    Si 3353   6.147   5.618  10.081
    1MMT1   Omg 3354   6.177   5.886  10.244
    1MMT1    Op 3355   6.132   5.612  10.244
    1MMT1  Ohmg 3356   5.876   5.714  10.251
    1MMT1    Ob 3357   6.008   5.570  10.020
    1MMT1    Ob 3358   6.178   5.772  10.021
    1MMT1    Ob 3359   0.071   5.518  10.045
    1MMT1     H 3360   5.916   5.791  10.208
    2MMT2    Al 3361   0.412   0.495   1.675
    2MMT2    Si 3362   0.488   0.305   1.943
    2MMT2    Si 3363   0.498   0.600   1.944
    2MMT2   Omg 3364   0.468   0.332   1.781
    2MMT2    Op 3365   0.513   0.607   1.781
    2MMT2    Oh 3366   0.253   0.504   1.774
    2MMT2    Ob 3367   0.121   0.648   2.005
    2MMT2    Ob 3368   0.468   0.446   2.005
    2MMT2    Ob 3369   0.382   0.700   1.981
    2MMT2     H 3370   0.213   0.427   1.818
    2MMT2    Al 3371   0.159   0.943   1.675
    2MMT2    Si 3372   0.234   0.754   1.943
    2MMT2    Si 3373   0.245   1.048   1.944
    2MMT2    Op 3374   0.215   0.780   1.781
    2MMT2    Op 3375   0.260   1.055   1.781
    2MMT2    Oh 3376   0.516   0.952   1.774
    2MMT2    Ob 3377   0.384   1.097   2.005
    2MMT2    Ob 3378   0.214   0.895   2.005
    2MMT2    Ob 3379   0.129   1.148   1.981
    2MMT2     H 3380   0.476   0.875   1.818
    2MMT2    Al 3381   0.419   1.092   1.675
    2MMT2    Si 3382   0.334   0.385   1.407
    2MMT2    Si 3383   0.333   0.987   1.406
    2MMT2   Omg 3384   0.353   0.358   1.569
    2MMT2    Op 3385   0.318   0.980   1.569
    2MMT2    Oh 3386   0.578   1.083   1.576
    2MMT2    Ob 3387   0.710   0.939   1.345
    2MMT2    Ob 3388   0.363   1.141   1.346
    2MMT2    Ob 3389   0.449   0.887   1.370
    2MMT2     H 3390   0.618   1.160   1.533
    2MMT2    Al 3391   0.156   0.644   1.675
    2MMT2    Si 3392   0.597   0.833   1.407
    2MMT2    Si 3393   0.586   0.539   1.406
    2MMT2    Op 3394   0.616   0.807   1.569
    2MMT2    Op 3395   0.571   0.532   1.569
    2MMT2    Oh 3396   0.315   0.634   1.576
    2MMT2    Ob 3397   0.447   0.490   1.345
    2MMT2    Ob 3398   0.617   0.692   1.346
    2MMT2    Ob 3399   0.702   0.439   1.370
    2MMT2     H 3400   0.355   0.712   1.533
    2MMT2    Al 3401   0.928   0.495   1.675
    2MMT2    Si 3402   1.004   0.305   1.943
    2MMT2    Si 3403   1.014   0.600   1.944
    2MMT2   Omg 3404   0.984   0.332   1.781
    2MMT2   Omg 3405   1.029   0.607   1.781
    2MMT2    Oh 3406   0.769   0.504   1.774
    2MMT2    Ob 3407   0.637   0.648   2.005
    2MMT2    Ob 3408   0.984   0.446   2.005
    2MMT2    Ob 3409   0.898   0.700   1.981
    2MMT2     H 3410   0.729   0.427   1.818
    2MMT2    Al 3411   0.675   0.943   1.675
    2MMT2    Si 3412   0.750   0.754   1.943
    2MMT2    Si 3413   0.761   1.048   1.944
    2MMT2    Op 3414   0.731   0.780   1.781
    2MMT2    Op 3415   0.776   1.055   1.781
    2MMT2    Oh 3416   1.032   0.952   1.774
    2MMT2    Ob 3417   0.900   1.097   2.005
    2MMT2    Ob 3418   0.730   0.895   2.005
    2MMT2    Ob 3419   0.645   1.148   1.981
    2MMT2     H 3420   0.992   0.875   1.818
    2MMT2    Al 3421   0.935   1.092   1.675
    2MMT2    Si 3422   0.850   0.385   1.407
    2MMT2    Si 3423   0.849   0.987   1.406
    2MMT2   Omg 3424   0.869   0.358   1.569
    2MMT2    Op 3425   0.834   0.980   1.569
    2MMT2    Oh 3426   1.094   1.083   1.576
    2MMT2    Ob 3427   1.226   0.939   1.345
    2MMT2    Ob 3428   0.879   1.141   1.346
    2MMT2    Ob 3429   0.965   0.887   1.370
    2MMT2     H 3430   1.134   1.160   1.533
    2MMT2    Al 3431   0.672   0.644   1.675
    2MMT2    Si 3432   1.113   0.833   1.407
    2MMT2    Si 3433   1.102   0.539   1.406
    2MMT2   Omg 3434   1.132   0.807   1.569
    2MMT2   Omg 3435   1.087   0.532   1.569
    2MMT2    Oh 3436   0.831   0.634   1.576
    2MMT2    Ob 3437   0.963   0.490   1.345
    2MMT2    Ob 3438   1.133   0.692   1.346
    2MMT2    Ob 3439   1.218   0.439   1.370
    2MMT2     H 3440   0.871   0.712   1.533
    2MMT2    Al 3441   1.444   0.495   1.675
    2MMT2    Si 3442   1.520   0.305   1.943
    2MMT2    Si 3443   1.530   0.600   1.944
    2MMT2    Op 3444   1.500   0.332   1.781
    2MMT2   Omg 3445   1.545   0.607   1.781
    2MMT2  Ohmg 3446   1.285   0.504   1.774
    2MMT2    Ob 3447   1.153   0.648   2.005
    2MMT2    Ob 3448   1.500   0.446   2.005
    2MMT2    Ob 3449   1.414   0.700   1.981
    2MMT2     H 3450   1.245   0.427   1.818
    2MMT2    Al 3451   1.191   0.943   1.675
    2MMT2    Si 3452   1.266   0.754   1.943
    2MMT2    Si 3453   1.277   1.048   1.944
    2MMT2   Omg 3454   1.247   0.780   1.781
    2MMT2    Op 3455   1.292   1.055   1.781
    2MMT2    Oh 3456   1.548   0.952   1.774
    2MMT2    Ob 3457   1.416   1.097   2.005
    2MMT2    Ob 3458   1.246   0.895   2.005
    2MMT2    Ob 3459   1.161   1.148   1.981
    2MMT2     H 3460   1.508   0.875   1.818
    2MMT2    Al 3461   1.451   1.092   1.675
    2MMT2    Si 3462   1.366   0.385   1.407
    2MMT2    Si 3463   1.365   0.987   1.406
    2MMT2    Op 3464   1.385   0.358   1.569
    2MMT2    Op 3465   1.350   0.980   1.569
    2MMT2    Oh 3466   1.610   1.083   1.576
    2MMT2    Ob 3467   1.742   0.939   1.345
    2MMT2    Ob 3468   1.395   1.141   1.346
    2MMT2    Ob 3469   1.481   0.887   1.370
    2MMT2     H 3470   1.650   1.160   1.533
    2MMT2   Mgo 3471   1.188   0.644   1.675
    2MMT2    Si 3472   1.629   0.833   1.407
    2MMT2    Si 3473   1.618   0.539   1.406
    2MMT2   Omg 3474   1.648   0.807   1.569
    2MMT2   Omg 3475   1.603   0.532   1.569
    2MMT2  Ohmg 3476   1.347   0.634   1.576
    2MMT2    Ob 3477   1.479   0.490   1.345
    2MMT2    Ob 3478   1.649   0.692   1.346
    2MMT2    Ob 3479   1.734   0.439   1.370
    2MMT2     H 3480   1.387   0.712   1.533
    2MMT2    Al 3481   1.960   0.495   1.675
    2MMT2    Si 3482   2.036   0.305   1.943
    2MMT2    Si 3483   2.046   0.600   1.944
    2MMT2   Omg 3484   2.016   0.332   1.781
    2MMT2    Op 3485   2.061   0.607   1.781
    2MMT2  Ohmg 3486   1.801   0.504   1.774
    2MMT2    Ob 3487   1.669   0.648   2.005
    2MMT2    Ob 3488   2.016   0.446   2.005
    2MMT2    Ob 3489   1.930   0.700   1.981
    2MMT2     H 3490   1.761   0.427   1.818
    2MMT2    Al 3491   1.707   0.943   1.675
    2MMT2    Si 3492   1.782   0.754   1.943
    2MMT2    Si 3493   1.793   1.048   1.944
    2MMT2   Omg 3494   1.763   0.780   1.781
    2MMT2    Op 3495   1.808   1.055   1.781
    2MMT2    Oh 3496   2.064   0.952   1.774
    2MMT2    Ob 3497   1.932   1.097   2.005
    2MMT2    Ob 3498   1.762   0.895   2.005
    2MMT2    Ob 3499   1.677   1.148   1.981
    2MMT2     H 3500   2.024   0.875   1.818
    2MMT2    Al 3501   1.967   1.092   1.675
    2MMT2    Si 3502   1.882   0.385   1.407
    2MMT2    Si 3503   1.881   0.987   1.406
    2MMT2   Omg 3504   1.901   0.358   1.569
    2MMT2    Op 3505   1.866   0.980   1.569
    2MMT2    Oh 3506   2.126   1.083   1.576
    2MMT2    Ob 3507   2.258   0.939   1.345
    2MMT2    Ob 3508   1.911   1.141   1.346
    2MMT2    Ob 3509   1.997   0.887   1.370
    2MMT2     H 3510   2.166   1.160   1.533
    2MMT2   Mgo 3511   1.704   0.644   1.675
    2MMT2    Si 3512   2.145   0.833   1.407
    2MMT2    Si 3513   2.134   0.539   1.406
    2MMT2    Op 3514   2.164   0.807   1.569
    2MMT2    Op 3515   2.119   0.532   1.569
    2MMT2  Ohmg 3516   1.863   0.634   1.576
    2MMT2    Ob 3517   1.995   0.490   1.345
    2MMT2    Ob 3518   2.165   0.692   1.346
    2MMT2    Ob 3519   2.250   0.439   1.370
    2MMT2     H 3520   1.903   0.712   1.533
    2MMT2    Al 3521   2.476   0.495   1.675
    2MMT2    Si 3522   2.552   0.305   1.943
    2MMT2    Si 3523   2.562   0.600   1.944
    2MMT2    Op 3524   2.532   0.332   1.781
    2MMT2    Op 3525   2.577   0.607   1.781
    2MMT2    Oh 3526   2.317   0.504   1.774
    2MMT2    Ob 3527   2.185   0.648   2.005
    2MMT2    Ob 3528   2.532   0.446   2.005
    2MMT2    Ob 3529   2.446   0.700   1.981
    2MMT2     H 3530   2.277   0.427   1.818
    2MMT2    Al 3531   2.223   0.943   1.675
    2MMT2    Si 3532   2.298   0.754   1.943
    2MMT2    Si 3533   2.309   1.048   1.944
    2MMT2    Op 3534   2.279   0.780   1.781
    2MMT2   Omg 3535   2.324   1.055   1.781
    2MMT2  Ohmg 3536   2.580   0.952   1.774
    2MMT2    Ob 3537   2.448   1.097   2.005
    2MMT2    Ob 3538   2.278   0.895   2.005
    2MMT2    Ob 3539   2.193   1.148   1.981
    2MMT2     H 3540   2.540   0.875   1.818
    2MMT2   Mgo 3541   2.483   1.092   1.675
    2MMT2    Si 3542   2.398   0.385   1.407
    2MMT2    Si 3543   2.397   0.987   1.406
    2MMT2    Op 3544   2.417   0.358   1.569
    2MMT2   Omg 3545   2.382   0.980   1.569
    2MMT2  Ohmg 3546   2.642   1.083   1.576
    2MMT2    Ob 3547   2.774   0.939   1.345
    2MMT2    Ob 3548   2.427   1.141   1.346
    2MMT2    Ob 3549   2.513   0.887   1.370
    2MMT2     H 3550   2.682   1.160   1.533
    2MMT2    Al 3551   2.220   0.644   1.675
    2MMT2    Si 3552   2.661   0.833   1.407
    2MMT2    Si 3553   2.650   0.539   1.406
    2MMT2    Op 3554   2.680   0.807   1.569
    2MMT2    Op 3555   2.635   0.532   1.569
    2MMT2    Oh 3556   2.379   0.634   1.576
    2MMT2    Ob 3557   2.511   0.490   1.345
    2MMT2    Ob 3558   2.681   0.692   1.346
    2MMT2    Ob 3559   2.766   0.439   1.370
    2MMT2     H 3560   2.419   0.712   1.533
    2MMT2    Al 3561   2.992   0.495   1.675
    2MMT2    Si 3562   3.068   0.305   1.943
    2MMT2    Si 3563   3.078   0.600   1.944
    2MMT2    Op 3564   3.048   0.332   1.781
    2MMT2   Omg 3565   3.093   0.607   1.781
    2MMT2    Oh 3566   2.833   0.504   1.774
    2MMT2    Ob 3567   2.701   0.648   2.005
    2MMT2    Ob 3568   3.048   0.446   2.005
    2MMT2    Ob 3569   2.962   0.700   1.981
    2MMT2     H 3570   2.793   0.427   1.818
    2MMT2    Al 3571   2.739   0.943   1.675
    2MMT2    Si 3572   2.814   0.754   1.943
    2MMT2    Si 3573   2.825   1.048   1.944
    2MMT2    Op 3574   2.795   0.780   1.781
    2MMT2    Op 3575   2.840   1.055   1.781
    2MMT2    Oh 3576   3.096   0.952   1.774
    2MMT2    Ob 3577   2.964   1.097   2.005
    2MMT2    Ob 3578   2.794   0.895   2.005
    2MMT2    Ob 3579   2.709   1.148   1.981
    2MMT2     H 3580   3.056   0.875   1.818
    2MMT2    Al 3581   2.999   1.092   1.675
    2MMT2    Si 3582   2.914   0.385   1.407
    2MMT2    Si 3583   2.913   0.987   1.406
    2MMT2    Op 3584   2.933   0.358   1.569
    2MMT2    Op 3585   2.898   0.980   1.569
    2MMT2    Oh 3586   3.158   1.083   1.576
    2MMT2    Ob 3587   3.290   0.939   1.345
    2MMT2    Ob 3588   2.943   1.141   1.346
    2MMT2    Ob 3589   3.029   0.887   1.370
    2MMT2     H 3590   3.198   1.160   1.533
    2MMT2    Al 3591   2.736   0.644   1.675
    2MMT2    Si 3592   3.177   0.833   1.407
    2MMT2    Si 3593   3.166   0.539   1.406
    2MMT2   Omg 3594   3.196   0.807   1.569
    2MMT2   Omg 3595   3.151   0.532   1.569
    2MMT2    Oh 3596   2.895   0.634   1.576
    2MMT2    Ob 3597   3.027   0.490   1.345
    2MMT2    Ob 3598   3.197   0.692   1.346
    2MMT2    Ob 3599   3.282   0.439   1.370
    2MMT2     H 3600   2.935   0.712   1.533
    2MMT2    Al 3601   3.508   0.495   1.675
    2MMT2    Si 3602   3.584   0.305   1.943
    2MMT2    Si 3603   3.594   0.600   1.944
    2MMT2    Op 3604   3.564   0.332   1.781
    2MMT2    Op 3605   3.609   0.607   1.781
    2MMT2  Ohmg 3606   3.349   0.504   1.774
    2MMT2    Ob 3607   3.217   0.648   2.005
    2MMT2    Ob 3608   3.564   0.446   2.005
    2MMT2    Ob 3609   3.478   0.700   1.981
    2MMT2     H 3610   3.309   0.427   1.818
    2MMT2    Al 3611   3.255   0.943   1.675
    2MMT2    Si 3612   3.330   0.754   1.943
    2MMT2    Si 3613   3.341   1.048   1.944
    2MMT2   Omg 3614   3.311   0.780   1.781
    2MMT2    Op 3615   3.356   1.055   1.781
    2MMT2    Oh 3616   3.612   0.952   1.774
    2MMT2    Ob 3617   3.480   1.097   2.005
    2MMT2    Ob 3618   3.310   0.895   2.005
    2MMT2    Ob 3619   3.225   1.148   1.981
    2MMT2     H 3620   3.572   0.875   1.818
    2MMT2    Al 3621   3.515   1.092   1.675
    2MMT2    Si 3622   3.430   0.385   1.407
    2MMT2    Si 3623   3.429   0.987   1.406
    2MMT2    Op 3624   3.449   0.358   1.569
    2MMT2    Op 3625   3.414   0.980   1.569
    2MMT2    Oh 3626   3.674   1.083   1.576
    2MMT2    Ob 3627   3.806   0.939   1.345
    2MMT2    Ob 3628   3.459   1.141   1.346
    2MMT2    Ob 3629   3.545   0.887   1.370
    2MMT2     H 3630   3.714   1.160   1.533
    2MMT2   Mgo 3631   3.252   0.644   1.675
    2MMT2    Si 3632   3.693   0.833   1.407
    2MMT2    Si 3633   3.682   0.539   1.406
    2MMT2    Op 3634   3.712   0.807   1.569
    2MMT2    Op 3635   3.667   0.532   1.569
    2MMT2  Ohmg 3636   3.411   0.634   1.576
    2MMT2    Ob 3637   3.543   0.490   1.345
    2MMT2    Ob 3638   3.713   0.692   1.346
    2MMT2    Ob 3639   3.798   0.439   1.370
    2MMT2     H 3640   3.451   0.712   1.533
    2MMT2    Al 3641   4.024   0.495   1.675
    2MMT2    Si 3642   4.100   0.305   1.943
    2MMT2    Si 3643   4.110   0.600   1.944
    2MMT2   Omg 3644   4.080   0.332   1.781
    2MMT2    Op 3645   4.125   0.607   1.781
    2MMT2    Oh 3646   3.865   0.504   1.774
    2MMT2    Ob 3647   3.733   0.648   2.005
    2MMT2    Ob 3648   4.080   0.446   2.005
    2MMT2    Ob 3649   3.994   0.700   1.981
    2MMT2     H 3650   3.825   0.427   1.818
    2MMT2    Al 3651   3.771   0.943   1.675
    2MMT2    Si 3652   3.846   0.754   1.943
    2MMT2    Si 3653   3.857   1.048   1.944
    2MMT2    Op 3654   3.827   0.780   1.781
    2MMT2    Op 3655   3.872   1.055   1.781
    2MMT2  Ohmg 3656   4.128   0.952   1.774
    2MMT2    Ob 3657   3.996   1.097   2.005
    2MMT2    Ob 3658   3.826   0.895   2.005
    2MMT2    Ob 3659   3.741   1.148   1.981
    2MMT2     H 3660   4.088   0.875   1.818
    2MMT2    Al 3661   4.031   1.092   1.675
    2MMT2    Si 3662   3.946   0.385   1.407
    2MMT2    Si 3663   3.945   0.987   1.406
    2MMT2   Omg 3664   3.965   0.358   1.569
    2MMT2    Op 3665   3.930   0.980   1.569
    2MMT2  Ohmg 3666   4.190   1.083   1.576
    2MMT2    Ob 3667   4.322   0.939   1.345
    2MMT2    Ob 3668   3.975   1.141   1.346
    2MMT2    Ob 3669   4.061   0.887   1.370
    2MMT2     H 3670   4.230   1.160   1.533
    2MMT2    Al 3671   3.768   0.644   1.675
    2MMT2    Si 3672   4.209   0.833   1.407
    2MMT2    Si 3673   4.198   0.539   1.406
    2MMT2   Omg 3674   4.228   0.807   1.569
    2MMT2    Op 3675   4.183   0.532   1.569
    2MMT2    Oh 3676   3.927   0.634   1.576
    2MMT2    Ob 3677   4.059   0.490   1.345
    2MMT2    Ob 3678   4.229   0.692   1.346
    2MMT2    Ob 3679   4.314   0.439   1.370
    2MMT2     H 3680   3.967   0.712   1.533
    2MMT2   Mgo 3681   4.540   0.495   1.675
    2MMT2    Si 3682   4.616   0.305   1.943
    2MMT2    Si 3683   4.626   0.600   1.944
    2MMT2   Omg 3684   4.596   0.332   1.781
    2MMT2   Omg 3685   4.641   0.607   1.781
    2MMT2  Ohmg 3686   4.381   0.504   1.774
    2MMT2    Ob 3687   4.249   0.648   2.005
    2MMT2    Ob 3688   4.596   0.446   2.005
    2MMT2    Ob 3689   4.510   0.700   1.981
    2MMT2     H 3690   4.341   0.427   1.818
    2MMT2   Mgo 3691   4.287   0.943   1.675
    2MMT2    Si 3692   4.362   0.754   1.943
    2MMT2    Si 3693   4.373   1.048   1.944
    2MMT2   Omg 3694   4.343   0.780   1.781
    2MMT2   Omg 3695   4.388   1.055   1.781
    2MMT2    Oh 3696   4.644   0.952   1.774
    2MMT2    Ob 3697   4.512   1.097   2.005
    2MMT2    Ob 3698   4.342   0.895   2.005
    2MMT2    Ob 3699   4.257   1.148   1.981
    2MMT2     H 3700   4.604   0.875   1.818
    2MMT2    Al 3701   4.547   1.092   1.675
    2MMT2    Si 3702   4.462   0.385   1.407
    2MMT2    Si 3703   4.461   0.987   1.406
    2MMT2   Omg 3704   4.481   0.358   1.569
    2MMT2   Omg 3705   4.446   0.980   1.569
    2MMT2    Oh 3706   4.706   1.083   1.576
    2MMT2    Ob 3707   4.838   0.939   1.345
    2MMT2    Ob 3708   4.491   1.141   1.346
    2MMT2    Ob 3709   4.577   0.887   1.370
    2MMT2     H 3710   4.746   1.160   1.533
    2MMT2    Al 3711   4.284   0.644   1.675
    2MMT2    Si 3712   4.725   0.833   1.407
    2MMT2    Si 3713   4.714   0.539   1.406
    2MMT2    Op 3714   4.744   0.807   1.569
    2MMT2   Omg 3715   4.699   0.532   1.569
    2MMT2  Ohmg 3716   4.443   0.634   1.576
    2MMT2    Ob 3717   4.575   0.490   1.345
    2MMT2    Ob 3718   4.745   0.692   1.346
    2MMT2    Ob 3719   4.830   0.439   1.370
    2MMT2     H 3720   4.483   0.712   1.533
    2MMT2    Al 3721   5.056   0.495   1.675
    2MMT2    Si 3722   5.132   0.305   1.943
    2MMT2    Si 3723   5.142   0.600   1.944
    2MMT2   Omg 3724   5.112   0.332   1.781
    2MMT2    Op 3725   5.157   0.607   1.781
    2MMT2    Oh 3726   4.897   0.504   1.774
    2MMT2    Ob 3727   4.765   0.648   2.005
    2MMT2    Ob 3728   5.112   0.446   2.005
    2MMT2    Ob 3729   5.026   0.700   1.981
    2MMT2     H 3730   4.857   0.427   1.818
    2MMT2    Al 3731   4.803   0.943   1.675
    2MMT2    Si 3732   4.878   0.754   1.943
    2MMT2    Si 3733   4.889   1.048   1.944
    2MMT2    Op 3734   4.859   0.780   1.781
    2MMT2   Omg 3735   4.904   1.055   1.781
    2MMT2  Ohmg 3736   5.160   0.952   1.774
    2MMT2    Ob 3737   5.028   1.097   2.005
    2MMT2    Ob 3738   4.858   0.895   2.005
    2MMT2    Ob 3739   4.773   1.148   1.981
    2MMT2     H 3740   5.120   0.875   1.818
    2MMT2   Mgo 3741   5.063   1.092   1.675
    2MMT2    Si 3742   4.978   0.385   1.407
    2MMT2    Si 3743   4.977   0.987   1.406
    2MMT2   Omg 3744   4.997   0.358   1.569
    2MMT2   Omg 3745   4.962   0.980   1.569
    2MMT2  Ohmg 3746   5.222   1.083   1.576
    2MMT2    Ob 3747   5.354   0.939   1.345
    2MMT2    Ob 3748   5.007   1.141   1.346
    2MMT2    Ob 3749   5.093   0.887   1.370
    2MMT2     H 3750   5.262   1.160   1.533
    2MMT2    Al 3751   4.800   0.644   1.675
    2MMT2    Si 3752   5.241   0.833   1.407
    2MMT2    Si 3753   5.230   0.539   1.406
    2MMT2    Op 3754   5.260   0.807   1.569
    2MMT2    Op 3755   5.215   0.532   1.569
    2MMT2    Oh 3756   4.959   0.634   1.576
    2MMT2    Ob 3757   5.091   0.490   1.345
    2MMT2    Ob 3758   5.261   0.692   1.346
    2MMT2    Ob 3759   5.346   0.439   1.370
    2MMT2     H 3760   4.999   0.712   1.533
    2MMT2    Al 3761   5.572   0.495   1.675
    2MMT2    Si 3762   5.648   0.305   1.943
    2MMT2    Si 3763   5.658   0.600   1.944
    2MMT2   Omg 3764   5.628   0.332   1.781
    2MMT2    Op 3765   5.673   0.607   1.781
    2MMT2    Oh 3766   5.413   0.504   1.774
    2MMT2    Ob 3767   5.281   0.648   2.005
    2MMT2    Ob 3768   5.628   0.446   2.005
    2MMT2    Ob 3769   5.542   0.700   1.981
    2MMT2     H 3770   5.373   0.427   1.818
    2MMT2    Al 3771   5.319   0.943   1.675
    2MMT2    Si 3772   5.394   0.754   1.943
    2MMT2    Si 3773   5.405   1.048   1.944
    2MMT2    Op 3774   5.375   0.780   1.781
    2MMT2    Op 3775   5.420   1.055   1.781
    2MMT2    Oh 3776   5.676   0.952   1.774
    2MMT2    Ob 3777   5.544   1.097   2.005
    2MMT2    Ob 3778   5.374   0.895   2.005
    2MMT2    Ob 3779   5.289   1.148   1.981
    2MMT2     H 3780   5.636   0.875   1.818
    2MMT2    Al 3781   5.579   1.092   1.675
    2MMT2    Si 3782   5.494   0.385   1.407
    2MMT2    Si 3783   5.493   0.987   1.406
    2MMT2   Omg 3784   5.513   0.358   1.569
    2MMT2    Op 3785   5.478   0.980   1.569
    2MMT2    Oh 3786   5.738   1.083   1.576
    2MMT2    Ob 3787   5.870   0.939   1.345
    2MMT2    Ob 3788   5.523   1.141   1.346
    2MMT2    Ob 3789   5.609   0.887   1.370
    2MMT2     H 3790   5.778   1.160   1.533
    2MMT2    Al 3791   5.316   0.644   1.675
    2MMT2    Si 3792   5.757   0.833   1.407
    2MMT2    Si 3793   5.746   0.539   1.406
    2MMT2    Op 3794   5.776   0.807   1.569
    2MMT2    Op 3795   5.731   0.532   1.569
    2MMT2    Oh 3796   5.475   0.634   1.576
    2MMT2    Ob 3797   5.607   0.490   1.345
    2MMT2    Ob 3798   5.777   0.692   1.346
    2MMT2    Ob 3799   5.862   0.439   1.370
    2MMT2     H 3800   5.515   0.712   1.533
    2MMT2    Al 3801   6.088   0.495   1.675
    2MMT2    Si 3802   6.164   0.305   1.943
    2MMT2    Si 3803   6.174   0.600   1.944
    2MMT2   Omg 3804   6.144   0.332   1.781
    2MMT2    Op 3805   6.189   0.607   1.781
    2MMT2    Oh 3806   5.929   0.504   1.774
    2MMT2    Ob 3807   5.797   0.648   2.005
    2MMT2    Ob 3808   6.144   0.446   2.005
    2MMT2    Ob 3809   6.058   0.700   1.981
    2MMT2     H 3810   5.889   0.427   1.818
    2MMT2    Al 3811   5.835   0.943   1.675
    2MMT2    Si 3812   5.910   0.754   1.943
    2MMT2    Si 3813   5.921   1.048   1.944
    2MMT2    Op 3814   5.891   0.780   1.781
    2MMT2   Omg 3815   5.936   1.055   1.781
    2MMT2  Ohmg 3816   0.000   0.952   1.774
    2MMT2    Ob 3817   6.060   1.097   2.005
    2MMT2    Ob 3818   5.890   0.895   2.005
    2MMT2    Ob 3819   5.805   1.148   1.981
    2MMT2     H 3820   6.152   0.875   1.818
    2MMT2   Mgo 3821   6.095   1.092   1.675
    2MMT2    Si 3822   6.010   0.385   1.407
    2MMT2    Si 3823   6.009   0.987   1.406
    2MMT2   Omg 3824   6.029   0.358   1.569
    2MMT2   Omg 3825   5.994   0.980   1.569
    2MMT2  Ohmg 3826   0.062   1.083   1.576
    2MMT2    Ob 3827   0.194   0.939   1.345
    2MMT2    Ob 3828   6.039   1.141   1.346
    2MMT2    Ob 3829   6.125   0.887   1.370
    2MMT2     H 3830   0.102   1.160   1.533
    2MMT2    Al 3831   5.832   0.644   1.675
    2MMT2    Si 3832   0.081   0.833   1.407
    2MMT2    Si 3833   0.070   0.539   1.406
    2MMT2    Op 3834   0.100   0.807   1.569
    2MMT2    Op 3835   0.055   0.532   1.569
    2MMT2    Oh 3836   5.991   0.634   1.576
    2MMT2    Ob 3837   6.123   0.490   1.345
    2MMT2    Ob 3838   0.101   0.692   1.346
    2MMT2    Ob 3839   0.186   0.439   1.370
    2MMT2     H 3840   6.031   0.712   1.533
    2MMT2    Al 3841   0.422   1.392   1.675
    2MMT2    Si 3842   0.497   1.202   1.943
    2MMT2    Si 3843   0.508   1.497   1.944
    2MMT2    Op 3844   0.478   1.229   1.781
    2MMT2   Omg 3845   0.523   1.503   1.781
    2MMT2    Oh 3846   0.263   1.401   1.774
    2MMT2    Ob 3847   0.131   1.545   2.005
    2MMT2    Ob 3848   0.477   1.343   2.005
    2MMT2    Ob 3849   0.391   1.596   1.981
    2MMT2     H 3850   0.223   1.324   1.818
    2MMT2   Mgo 3851   0.168   1.840   1.675
    2MMT2    Si 3852   0.244   1.650   1.943
    2MMT2    Si 3853   0.255   1.945   1.944
    2MMT2   Omg 3854   0.225   1.677   1.781
    2MMT2   Omg 3855   0.270   1.951   1.781
    2MMT2    Oh 3856   0.525   1.849   1.774
    2MMT2    Ob 3857   0.394   1.993   2.005
    2MMT2    Ob 3858   0.224   1.791   2.005
    2MMT2    Ob 3859   0.138   2.045   1.981
    2MMT2     H 3860   0.485   1.772   1.818
    2MMT2    Al 3861   0.429   1.989   1.675
    2MMT2    Si 3862   0.343   1.282   1.407
    2MMT2    Si 3863   0.342   1.883   1.406
    2MMT2    Op 3864   0.363   1.255   1.569
    2MMT2   Omg 3865   0.327   1.877   1.569
    2MMT2    Oh 3866   0.588   1.979   1.576
    2MMT2    Ob 3867   0.719   1.835   1.345
    2MMT2    Ob 3868   0.373   2.037   1.346
    2MMT2    Ob 3869   0.459   1.784   1.370
    2MMT2     H 3870   0.628   2.056   1.533
    2MMT2    Al 3871   0.166   1.540   1.675
    2MMT2    Si 3872   0.606   1.730   1.407
    2MMT2    Si 3873   0.596   1.435   1.406
    2MMT2   Omg 3874   0.626   1.703   1.569
    2MMT2   Omg 3875   0.580   1.429   1.569
    2MMT2    Oh 3876   0.325   1.531   1.576
    2MMT2    Ob 3877   0.457   1.387   1.345
    2MMT2    Ob 3878   0.626   1.589   1.346
    2MMT2    Ob 3879   0.712   1.336   1.370
    2MMT2     H 3880   0.365   1.608   1.533
    2MMT2    Al 3881   0.938   1.392   1.675
    2MMT2    Si 3882   1.013   1.202   1.943
    2MMT2    Si 3883   1.024   1.497   1.944
    2MMT2    Op 3884   0.994   1.229   1.781
    2MMT2   Omg 3885   1.039   1.503   1.781
    2MMT2  Ohmg 3886   0.779   1.401   1.774
    2MMT2    Ob 3887   0.647   1.545   2.005
    2MMT2    Ob 3888   0.993   1.343   2.005
    2MMT2    Ob 3889   0.907   1.596   1.981
    2MMT2     H 3890   0.739   1.324   1.818
    2MMT2    Al 3891   0.684   1.840   1.675
    2MMT2    Si 3892   0.760   1.650   1.943
    2MMT2    Si 3893   0.771   1.945   1.944
    2MMT2   Omg 3894   0.741   1.677   1.781
    2MMT2    Op 3895   0.786   1.951   1.781
    2MMT2    Oh 3896   1.041   1.849   1.774
    2MMT2    Ob 3897   0.910   1.993   2.005
    2MMT2    Ob 3898   0.740   1.791   2.005
    2MMT2    Ob 3899   0.654   2.045   1.981
    2MMT2     H 3900   1.001   1.772   1.818
    2MMT2    Al 3901   0.945   1.989   1.675
    2MMT2    Si 3902   0.859   1.282   1.407
    2MMT2    Si 3903   0.858   1.883   1.406
    2MMT2    Op 3904   0.879   1.255   1.569
    2MMT2    Op 3905   0.843   1.877   1.569
    2MMT2    Oh 3906   1.104   1.979   1.576
    2MMT2    Ob 3907   1.235   1.835   1.345
    2MMT2    Ob 3908   0.889   2.037   1.346
    2MMT2    Ob 3909   0.975   1.784   1.370
    2MMT2     H 3910   1.144   2.056   1.533
    2MMT2   Mgo 3911   0.682   1.540   1.675
    2MMT2    Si 3912   1.122   1.730   1.407
    2MMT2    Si 3913   1.112   1.435   1.406
    2MMT2   Omg 3914   1.142   1.703   1.569
    2MMT2   Omg 3915   1.096   1.429   1.569
    2MMT2  Ohmg 3916   0.841   1.531   1.576
    2MMT2    Ob 3917   0.973   1.387   1.345
    2MMT2    Ob 3918   1.142   1.589   1.346
    2MMT2    Ob 3919   1.228   1.336   1.370
    2MMT2     H 3920   0.881   1.608   1.533
    2MMT2    Al 3921   1.454   1.392   1.675
    2MMT2    Si 3922   1.529   1.202   1.943
    2MMT2    Si 3923   1.540   1.497   1.944
    2MMT2    Op 3924   1.510   1.229   1.781
    2MMT2   Omg 3925   1.555   1.503   1.781
    2MMT2  Ohmg 3926   1.295   1.401   1.774
    2MMT2    Ob 3927   1.163   1.545   2.005
    2MMT2    Ob 3928   1.509   1.343   2.005
    2MMT2    Ob 3929   1.423   1.596   1.981
    2MMT2     H 3930   1.255   1.324   1.818
    2MMT2    Al 3931   1.200   1.840   1.675
    2MMT2    Si 3932   1.276   1.650   1.943
    2MMT2    Si 3933   1.287   1.945   1.944
    2MMT2   Omg 3934   1.257   1.677   1.781
    2MMT2    Op 3935   1.302   1.951   1.781
    2MMT2    Oh 3936   1.557   1.849   1.774
    2MMT2    Ob 3937   1.426   1.993   2.005
    2MMT2    Ob 3938   1.256   1.791   2.005
    2MMT2    Ob 3939   1.170   2.045   1.981
    2MMT2     H 3940   1.517   1.772   1.818
    2MMT2    Al 3941   1.461   1.989   1.675
    2MMT2    Si 3942   1.375   1.282   1.407
    2MMT2    Si 3943   1.374   1.883   1.406
    2MMT2    Op 3944   1.395   1.255   1.569
    2MMT2    Op 3945   1.359   1.877   1.569
    2MMT2    Oh 3946   1.620   1.979   1.576
    2MMT2    Ob 3947   1.751   1.835   1.345
    2MMT2    Ob 3948   1.405   2.037   1.346
    2MMT2    Ob 3949   1.491   1.784   1.370
    2MMT2     H 3950   1.660   2.056   1.533
    2MMT2   Mgo 3951   1.198   1.540   1.675
    2MMT2    Si 3952   1.638   1.730   1.407
    2MMT2    Si 3953   1.628   1.435   1.406
    2MMT2   Omg 3954   1.658   1.703   1.569
    2MMT2   Omg 3955   1.612   1.429   1.569
    2MMT2  Ohmg 3956   1.357   1.531   1.576
    2MMT2    Ob 3957   1.489   1.387   1.345
    2MMT2    Ob 3958   1.658   1.589   1.346
    2MMT2    Ob 3959   1.744   1.336   1.370
    2MMT2     H 3960   1.397   1.608   1.533
    2MMT2    Al 3961   1.970   1.392   1.675
    2MMT2    Si 3962   2.045   1.202   1.943
    2MMT2    Si 3963   2.056   1.497   1.944
    2MMT2    Op 3964   2.026   1.229   1.781
    2MMT2   Omg 3965   2.071   1.503   1.781
    2MMT2  Ohmg 3966   1.811   1.401   1.774
    2MMT2    Ob 3967   1.679   1.545   2.005
    2MMT2    Ob 3968   2.025   1.343   2.005
    2MMT2    Ob 3969   1.939   1.596   1.981
    2MMT2     H 3970   1.771   1.324   1.818
    2MMT2    Al 3971   1.716   1.840   1.675
    2MMT2    Si 3972   1.792   1.650   1.943
    2MMT2    Si 3973   1.803   1.945   1.944
    2MMT2   Omg 3974   1.773   1.677   1.781
    2MMT2    Op 3975   1.818   1.951   1.781
    2MMT2    Oh 3976   2.073   1.849   1.774
    2MMT2    Ob 3977   1.942   1.993   2.005
    2MMT2    Ob 3978   1.772   1.791   2.005
    2MMT2    Ob 3979   1.686   2.045   1.981
    2MMT2     H 3980   2.033   1.772   1.818
    2MMT2    Al 3981   1.977   1.989   1.675
    2MMT2    Si 3982   1.891   1.282   1.407
    2MMT2    Si 3983   1.890   1.883   1.406
    2MMT2    Op 3984   1.911   1.255   1.569
    2MMT2    Op 3985   1.875   1.877   1.569
    2MMT2    Oh 3986   2.136   1.979   1.576
    2MMT2    Ob 3987   2.267   1.835   1.345
    2MMT2    Ob 3988   1.921   2.037   1.346
    2MMT2    Ob 3989   2.007   1.784   1.370
    2MMT2     H 3990   2.176   2.056   1.533
    2MMT2   Mgo 3991   1.714   1.540   1.675
    2MMT2    Si 3992   2.154   1.730   1.407
    2MMT2    Si 3993   2.144   1.435   1.406
    2MMT2   Omg 3994   2.174   1.703   1.569
    2MMT2   Omg 3995   2.128   1.429   1.569
    2MMT2  Ohmg 3996   1.873   1.531   1.576
    2MMT2    Ob 3997   2.005   1.387   1.345
    2MMT2    Ob 3998   2.174   1.589   1.346
    2MMT2    Ob 3999   2.260   1.336   1.370
    2MMT2     H 4000   1.913   1.608   1.533
    2MMT2    Al 4001   2.486   1.392   1.675
    2MMT2    Si 4002   2.561   1.202   1.943
    2MMT2    Si 4003   2.572   1.497   1.944
    2MMT2   Omg 4004   2.542   1.229   1.781
    2MMT2    Op 4005   2.587   1.503   1.781
    2MMT2  Ohmg 4006   2.327   1.401   1.774
    2MMT2    Ob 4007   2.195   1.545   2.005
    2MMT2    Ob 4008   2.541   1.343   2.005
    2MMT2    Ob 4009   2.455   1.596   1.981
    2MMT2     H 4010   2.287   1.324   1.818
    2MMT2    Al 4011   2.232   1.840   1.675
    2MMT2    Si 4012   2.308   1.650   1.943
    2MMT2    Si 4013   2.319   1.945   1.944
    2MMT2   Omg 4014   2.289   1.677   1.781
    2MMT2    Op 4015   2.334   1.951   1.781
    2MMT2    Oh 4016   2.589   1.849   1.774
    2MMT2    Ob 4017   2.458   1.993   2.005
    2MMT2    Ob 4018   2.288   1.791   2.005
    2MMT2    Ob 4019   2.202   2.045   1.981
    2MMT2     H 4020   2.549   1.772   1.818
    2MMT2    Al 4021   2.493   1.989   1.675
    2MMT2    Si 4022   2.407   1.282   1.407
    2MMT2    Si 4023   2.406   1.883   1.406
    2MMT2   Omg 4024   2.427   1.255   1.569
    2MMT2    Op 4025   2.391   1.877   1.569
    2MMT2    Oh 4026   2.652   1.979   1.576
    2MMT2    Ob 4027   2.783   1.835   1.345
    2MMT2    Ob 4028   2.437   2.037   1.346
    2MMT2    Ob 4029   2.523   1.784   1.370
    2MMT2     H 4030   2.692   2.056   1.533
    2MMT2   Mgo 4031   2.230   1.540   1.675
    2MMT2    Si 4032   2.670   1.730   1.407
    2MMT2    Si 4033   2.660   1.435   1.406
    2MMT2    Op 4034   2.690   1.703   1.569
    2MMT2    Op 4035   2.644   1.429   1.569
    2MMT2  Ohmg 4036   2.389   1.531   1.576
    2MMT2    Ob 4037   2.521   1.387   1.345
    2MMT2    Ob 4038   2.690   1.589   1.346
    2MMT2    Ob 4039   2.776   1.336   1.370
    2MMT2     H 4040   2.429   1.608   1.533
    2MMT2   Mgo 4041   3.002   1.392   1.675
    2MMT2    Si 4042   3.077   1.202   1.943
    2MMT2    Si 4043   3.088   1.497   1.944
    2MMT2   Omg 4044   3.058   1.229   1.781
    2MMT2   Omg 4045   3.103   1.503   1.781
    2MMT2  Ohmg 4046   2.843   1.401   1.774
    2MMT2    Ob 4047   2.711   1.545   2.005
    2MMT2    Ob 4048   3.057   1.343   2.005
    2MMT2    Ob 4049   2.971   1.596   1.981
    2MMT2     H 4050   2.803   1.324   1.818
    2MMT2    Al 4051   2.748   1.840   1.675
    2MMT2    Si 4052   2.824   1.650   1.943
    2MMT2    Si 4053   2.835   1.945   1.944
    2MMT2    Op 4054   2.805   1.677   1.781
    2MMT2   Omg 4055   2.850   1.951   1.781
    2MMT2  Ohmg 4056   3.105   1.849   1.774
    2MMT2    Ob 4057   2.974   1.993   2.005
    2MMT2    Ob 4058   2.804   1.791   2.005
    2MMT2    Ob 4059   2.718   2.045   1.981
    2MMT2     H 4060   3.065   1.772   1.818
    2MMT2   Mgo 4061   3.009   1.989   1.675
    2MMT2    Si 4062   2.923   1.282   1.407
    2MMT2    Si 4063   2.922   1.883   1.406
    2MMT2   Omg 4064   2.943   1.255   1.569
    2MMT2   Omg 4065   2.907   1.877   1.569
    2MMT2  Ohmg 4066   3.168   1.979   1.576
    2MMT2    Ob 4067   3.299   1.835   1.345
    2MMT2    Ob 4068   2.953   2.037   1.346
    2MMT2    Ob 4069   3.039   1.784   1.370
    2MMT2     H 4070   3.208   2.056   1.533
    2MMT2    Al 4071   2.746   1.540   1.675
    2MMT2    Si 4072   3.186   1.730   1.407
    2MMT2    Si 4073   3.176   1.435   1.406
    2MMT2    Op 4074   3.206   1.703   1.569
    2MMT2   Omg 4075   3.160   1.429   1.569
    2MMT2  Ohmg 4076   2.905   1.531   1.576
    2MMT2    Ob 4077   3.037   1.387   1.345
    2MMT2    Ob 4078   3.206   1.589   1.346
    2MMT2    Ob 4079   3.292   1.336   1.370
    2MMT2     H 4080   2.945   1.608   1.533
    2MMT2    Al 4081   3.518   1.392   1.675
    2MMT2    Si 4082   3.593   1.202   1.943
    2MMT2    Si 4083   3.604   1.497   1.944
    2MMT2    Op 4084   3.574   1.229   1.781
    2MMT2    Op 4085   3.619   1.503   1.781
    2MMT2    Oh 4086   3.359   1.401   1.774
    2MMT2    Ob 4087   3.227   1.545   2.005
    2MMT2    Ob 4088   3.573   1.343   2.005
    2MMT2    Ob 4089   3.487   1.596   1.981
    2MMT2     H 4090   3.319   1.324   1.818
    2MMT2    Al 4091   3.264   1.840   1.675
    2MMT2    Si 4092   3.340   1.650   1.943
    2MMT2    Si 4093   3.351   1.945   1.944
    2MMT2    Op 4094   3.321   1.677   1.781
    2MMT2    Op 4095   3.366   1.951   1.781
    2MMT2    Oh 4096   3.621   1.849   1.774
    2MMT2    Ob 4097   3.490   1.993   2.005
    2MMT2    Ob 4098   3.320   1.791   2.005
    2MMT2    Ob 4099   3.234   2.045   1.981
    2MMT2     H 4100   3.581   1.772   1.818
    2MMT2    Al 4101   3.525   1.989   1.675
    2MMT2    Si 4102   3.439   1.282   1.407
    2MMT2    Si 4103   3.438   1.883   1.406
    2MMT2    Op 4104   3.459   1.255   1.569
    2MMT2    Op 4105   3.423   1.877   1.569
    2MMT2    Oh 4106   3.684   1.979   1.576
    2MMT2    Ob 4107   3.815   1.835   1.345
    2MMT2    Ob 4108   3.469   2.037   1.346
    2MMT2    Ob 4109   3.555   1.784   1.370
    2MMT2     H 4110   3.724   2.056   1.533
    2MMT2    Al 4111   3.262   1.540   1.675
    2MMT2    Si 4112   3.702   1.730   1.407
    2MMT2    Si 4113   3.692   1.435   1.406
    2MMT2    Op 4114   3.722   1.703   1.569
    2MMT2    Op 4115   3.676   1.429   1.569
    2MMT2    Oh 4116   3.421   1.531   1.576
    2MMT2    Ob 4117   3.553   1.387   1.345
    2MMT2    Ob 4118   3.722   1.589   1.346
    2MMT2    Ob 4119   3.808   1.336   1.370
    2MMT2     H 4120   3.461   1.608   1.533
    2MMT2   Mgo 4121   4.034   1.392   1.675
    2MMT2    Si 4122   4.109   1.202   1.943
    2MMT2    Si 4123   4.120   1.497   1.944
    2MMT2   Omg 4124   4.090   1.229   1.781
    2MMT2   Omg 4125   4.135   1.503   1.781
    2MMT2  Ohmg 4126   3.875   1.401   1.774
    2MMT2    Ob 4127   3.743   1.545   2.005
    2MMT2    Ob 4128   4.089   1.343   2.005
    2MMT2    Ob 4129   4.003   1.596   1.981
    2MMT2     H 4130   3.835   1.324   1.818
    2MMT2    Al 4131   3.780   1.840   1.675
    2MMT2    Si 4132   3.856   1.650   1.943
    2MMT2    Si 4133   3.867   1.945   1.944
    2MMT2    Op 4134   3.837   1.677   1.781
    2MMT2    Op 4135   3.882   1.951   1.781
    2MMT2    Oh 4136   4.137   1.849   1.774
    2MMT2    Ob 4137   4.006   1.993   2.005
    2MMT2    Ob 4138   3.836   1.791   2.005
    2MMT2    Ob 4139   3.750   2.045   1.981
    2MMT2     H 4140   4.097   1.772   1.818
    2MMT2    Al 4141   4.041   1.989   1.675
    2MMT2    Si 4142   3.955   1.282   1.407
    2MMT2    Si 4143   3.954   1.883   1.406
    2MMT2   Omg 4144   3.975   1.255   1.569
    2MMT2    Op 4145   3.939   1.877   1.569
    2MMT2    Oh 4146   4.200   1.979   1.576
    2MMT2    Ob 4147   4.331   1.835   1.345
    2MMT2    Ob 4148   3.985   2.037   1.346
    2MMT2    Ob 4149   4.071   1.784   1.370
    2MMT2     H 4150   4.240   2.056   1.533
    2MMT2    Al 4151   3.778   1.540   1.675
    2MMT2    Si 4152   4.218   1.730   1.407
    2MMT2    Si 4153   4.208   1.435   1.406
    2MMT2    Op 4154   4.238   1.703   1.569
    2MMT2   Omg 4155   4.192   1.429   1.569
    2MMT2  Ohmg 4156   3.937   1.531   1.576
    2MMT2    Ob 4157   4.069   1.387   1.345
    2MMT2    Ob 4158   4.238   1.589   1.346
    2MMT2    Ob 4159   4.324   1.336   1.370
    2MMT2     H 4160   3.977   1.608   1.533
    2MMT2   Mgo 4161   4.550   1.392   1.675
    2MMT2    Si 4162   4.625   1.202   1.943
    2MMT2    Si 4163   4.636   1.497   1.944
    2MMT2   Omg 4164   4.606   1.229   1.781
    2MMT2   Omg 4165   4.651   1.503   1.781
    2MMT2  Ohmg 4166   4.391   1.401   1.774
    2MMT2    Ob 4167   4.259   1.545   2.005
    2MMT2    Ob 4168   4.605   1.343   2.005
    2MMT2    Ob 4169   4.519   1.596   1.981
    2MMT2     H 4170   4.351   1.324   1.818
    2MMT2    Al 4171   4.296   1.840   1.675
    2MMT2    Si 4172   4.372   1.650   1.943
    2MMT2    Si 4173   4.383   1.945   1.944
    2MMT2    Op 4174   4.353   1.677   1.781
    2MMT2   Omg 4175   4.398   1.951   1.781
    2MMT2  Ohmg 4176   4.653   1.849   1.774
    2MMT2    Ob 4177   4.522   1.993   2.005
    2MMT2    Ob 4178   4.352   1.791   2.005
    2MMT2    Ob 4179   4.266   2.045   1.981
    2MMT2     H 4180   4.613   1.772   1.818
    2MMT2   Mgo 4181   4.557   1.989   1.675
    2MMT2    Si 4182   4.471   1.282   1.407
    2MMT2    Si 4183   4.470   1.883   1.406
    2MMT2   Omg 4184   4.491   1.255   1.569
    2MMT2   Omg 4185   4.455   1.877   1.569
    2MMT2  Ohmg 4186   4.716   1.979   1.576
    2MMT2    Ob 4187   4.847   1.835   1.345
    2MMT2    Ob 4188   4.501   2.037   1.346
    2MMT2    Ob 4189   4.587   1.784   1.370
    2MMT2     H 4190   4.756   2.056   1.533
    2MMT2    Al 4191   4.294   1.540   1.675
    2MMT2    Si 4192   4.734   1.730   1.407
    2MMT2    Si 4193   4.724   1.435   1.406
    2MMT2    Op 4194   4.754   1.703   1.569
    2MMT2   Omg 4195   4.708   1.429   1.569
    2MMT2  Ohmg 4196   4.453   1.531   1.576
    2MMT2    Ob 4197   4.585   1.387   1.345
    2MMT2    Ob 4198   4.754   1.589   1.346
    2MMT2    Ob 4199   4.840   1.336   1.370
    2MMT2     H 4200   4.493   1.608   1.533
    2MMT2    Al 4201   5.066   1.392   1.675
    2MMT2    Si 4202   5.141   1.202   1.943
    2MMT2    Si 4203   5.152   1.497   1.944
    2MMT2   Omg 4204   5.122   1.229   1.781
    2MMT2    Op 4205   5.167   1.503   1.781
    2MMT2    Oh 4206   4.907   1.401   1.774
    2MMT2    Ob 4207   4.775   1.545   2.005
    2MMT2    Ob 4208   5.121   1.343   2.005
    2MMT2    Ob 4209   5.035   1.596   1.981
    2MMT2     H 4210   4.867   1.324   1.818
    2MMT2    Al 4211   4.812   1.840   1.675
    2MMT2    Si 4212   4.888   1.650   1.943
    2MMT2    Si 4213   4.899   1.945   1.944
    2MMT2    Op 4214   4.869   1.677   1.781
    2MMT2    Op 4215   4.914   1.951   1.781
    2MMT2  Ohmg 4216   5.169   1.849   1.774
    2MMT2    Ob 4217   5.038   1.993   2.005
    2MMT2    Ob 4218   4.868   1.791   2.005
    2MMT2    Ob 4219   4.782   2.045   1.981
    2MMT2     H 4220   5.129   1.772   1.818
    2MMT2    Al 4221   5.073   1.989   1.675
    2MMT2    Si 4222   4.987   1.282   1.407
    2MMT2    Si 4223   4.986   1.883   1.406
    2MMT2   Omg 4224   5.007   1.255   1.569
    2MMT2    Op 4225   4.971   1.877   1.569
    2MMT2  Ohmg 4226   5.232   1.979   1.576
    2MMT2    Ob 4227   5.363   1.835   1.345
    2MMT2    Ob 4228   5.017   2.037   1.346
    2MMT2    Ob 4229   5.103   1.784   1.370
    2MMT2     H 4230   5.272   2.056   1.533
    2MMT2    Al 4231   4.810   1.540   1.675
    2MMT2    Si 4232   5.250   1.730   1.407
    2MMT2    Si 4233   5.240   1.435   1.406
    2MMT2   Omg 4234   5.270   1.703   1.569
    2MMT2    Op 4235   5.224   1.429   1.569
    2MMT2    Oh 4236   4.969   1.531   1.576
    2MMT2    Ob 4237   5.101   1.387   1.345
    2MMT2    Ob 4238   5.270   1.589   1.346
    2MMT2    Ob 4239   5.356   1.336   1.370
    2MMT2     H 4240   5.009   1.608   1.533
    2MMT2   Mgo 4241   5.582   1.392   1.675
    2MMT2    Si 4242   5.657   1.202   1.943
    2MMT2    Si 4243   5.668   1.497   1.944
    2MMT2   Omg 4244   5.638   1.229   1.781
    2MMT2   Omg 4245   5.683   1.503   1.781
    2MMT2  Ohmg 4246   5.423   1.401   1.774
    2MMT2    Ob 4247   5.291   1.545   2.005
    2MMT2    Ob 4248   5.637   1.343   2.005
    2MMT2    Ob 4249   5.551   1.596   1.981
    2MMT2     H 4250   5.383   1.324   1.818
    2MMT2   Mgo 4251   5.328   1.840   1.675
    2MMT2    Si 4252   5.404   1.650   1.943
    2MMT2    Si 4253   5.415   1.945   1.944
    2MMT2   Omg 4254   5.385   1.677   1.781
    2MMT2   Omg 4255   5.430   1.951   1.781
    2MMT2    Oh 4256   5.685   1.849   1.774
    2MMT2    Ob 4257   5.554   1.993   2.005
    2MMT2    Ob 4258   5.384   1.791   2.005
    2MMT2    Ob 4259   5.298   2.045   1.981
    2MMT2     H 4260   5.645   1.772   1.818
    2MMT2    Al 4261   5.589   1.989   1.675
    2MMT2    Si 4262   5.503   1.282   1.407
    2MMT2    Si 4263   5.502   1.883   1.406
    2MMT2   Omg 4264   5.523   1.255   1.569
    2MMT2   Omg 4265   5.487   1.877   1.569
    2MMT2    Oh 4266   5.748   1.979   1.576
    2MMT2    Ob 4267   5.879   1.835   1.345
    2MMT2    Ob 4268   5.533   2.037   1.346
    2MMT2    Ob 4269   5.619   1.784   1.370
    2MMT2     H 4270   5.788   2.056   1.533
    2MMT2    Al 4271   5.326   1.540   1.675
    2MMT2    Si 4272   5.766   1.730   1.407
    2MMT2    Si 4273   5.756   1.435   1.406
    2MMT2    Op 4274   5.786   1.703   1.569
    2MMT2   Omg 4275   5.740   1.429   1.569
    2MMT2  Ohmg 4276   5.485   1.531   1.576
    2MMT2    Ob 4277   5.617   1.387   1.345
    2MMT2    Ob 4278   5.786   1.589   1.346
    2MMT2    Ob 4279   5.872   1.336   1.370
    2MMT2     H 4280   5.525   1.608   1.533
    2MMT2    Al 4281   6.098   1.392   1.675
    2MMT2    Si 4282   6.173   1.202   1.943
    2MMT2    Si 4283   6.184   1.497   1.944
    2MMT2   Omg 4284   6.154   1.229   1.781
    2MMT2    Op 4285   0.007   1.503   1.781
    2MMT2    Oh 4286   5.939   1.401   1.774
    2MMT2    Ob 4287   5.807   1.545   2.005
    2MMT2    Ob 4288   6.153   1.343   2.005
    2MMT2    Ob 4289   6.067   1.596   1.981
    2MMT2     H 4290   5.899   1.324   1.818
    2MMT2    Al 4291   5.844   1.840   1.675
    2MMT2    Si 4292   5.920   1.650   1.943
    2MMT2    Si 4293   5.931   1.945   1.944
    2MMT2    Op 4294   5.901   1.677   1.781
    2MMT2    Op 4295   5.946   1.951   1.781
    2MMT2  Ohmg 4296   0.009   1.849   1.774
    2MMT2    Ob 4297   6.070   1.993   2.005
    2MMT2    Ob 4298   5.900   1.791   2.005
    2MMT2    Ob 4299   5.814   2.045   1.981
    2MMT2     H 4300   6.161   1.772   1.818
    2MMT2    Al 4301   6.105   1.989   1.675
    2MMT2    Si 4302   6.019   1.282   1.407
    2MMT2    Si 4303   6.018   1.883   1.406
    2MMT2   Omg 4304   6.039   1.255   1.569
    2MMT2    Op 4305   6.003   1.877   1.569
    2MMT2  Ohmg 4306   0.072   1.979   1.576
    2MMT2    Ob 4307   0.203   1.835   1.345
    2MMT2    Ob 4308   6.049   2.037   1.346
    2MMT2    Ob 4309   6.135   1.784   1.370
    2MMT2     H 4310   0.112   2.056   1.533
    2MMT2    Al 4311   5.842   1.540   1.675
    2MMT2    Si 4312   0.090   1.730   1.407
    2MMT2    Si 4313   0.080   1.435   1.406
    2MMT2   Omg 4314   0.110   1.703   1.569
    2MMT2    Op 4315   0.064   1.429   1.569
    2MMT2    Oh 4316   6.001   1.531   1.576
    2MMT2    Ob 4317   6.133   1.387   1.345
    2MMT2    Ob 4318   0.110   1.589   1.346
    2MMT2    Ob 4319   0.196   1.336   1.370
    2MMT2     H 4320   6.041   1.608   1.533
    2MMT2    Al 4321   0.431   2.288   1.675
    2MMT2    Si 4322   0.507   2.099   1.943
    2MMT2    Si 4323   0.517   2.393   1.944
    2MMT2    Op 4324   0.488   2.125   1.781
    2MMT2    Op 4325   0.533   2.400   1.781
    2MMT2    Oh 4326   0.272   2.297   1.774
    2MMT2    Ob 4327   0.141   2.442   2.005
    2MMT2    Ob 4328   0.487   2.240   2.005
    2MMT2    Ob 4329   0.401   2.493   1.981
    2MMT2     H 4330   0.232   2.220   1.818
    2MMT2    Al 4331   0.178   2.736   1.675
    2MMT2    Si 4332   0.254   2.547   1.943
    2MMT2    Si 4333   0.264   2.842   1.944
    2MMT2    Op 4334   0.234   2.574   1.781
    2MMT2    Op 4335   0.280   2.848   1.781
    2MMT2    Oh 4336   0.535   2.746   1.774
    2MMT2    Ob 4337   0.403   2.890   2.005
    2MMT2    Ob 4338   0.234   2.688   2.005
    2MMT2    Ob 4339   0.148   2.941   1.981
    2MMT2     H 4340   0.495   2.669   1.818
    2MMT2    Al 4341   0.438   2.885   1.675
    2MMT2    Si 4342   0.353   2.178   1.407
    2MMT2    Si 4343   0.352   2.780   1.406
    2MMT2    Op 4344   0.372   2.151   1.569
    2MMT2    Op 4345   0.337   2.774   1.569
    2MMT2    Oh 4346   0.597   2.876   1.576
    2MMT2    Ob 4347   0.729   2.732   1.345
    2MMT2    Ob 4348   0.383   2.934   1.346
    2MMT2    Ob 4349   0.468   2.680   1.370
    2MMT2     H 4350   0.637   2.953   1.533
    2MMT2    Al 4351   0.175   2.437   1.675
    2MMT2    Si 4352   0.616   2.626   1.407
    2MMT2    Si 4353   0.605   2.332   1.406
    2MMT2    Op 4354   0.635   2.600   1.569
    2MMT2    Op 4355   0.590   2.325   1.569
    2MMT2    Oh 4356   0.334   2.428   1.576
    2MMT2    Ob 4357   0.466   2.284   1.345
    2MMT2    Ob 4358   0.636   2.486   1.346
    2MMT2    Ob 4359   0.722   2.232   1.370
    2MMT2     H 4360   0.374   2.505   1.533
    2MMT2    Al 4361   0.947   2.288   1.675
    2MMT2    Si 4362   1.023   2.099   1.943
    2MMT2    Si 4363   1.033   2.393   1.944
    2MMT2    Op 4364   1.004   2.125   1.781
    2MMT2    Op 4365   1.049   2.400   1.781
    2MMT2    Oh 4366   0.788   2.297   1.774
    2MMT2    Ob 4367   0.657   2.442   2.005
    2MMT2    Ob 4368   1.003   2.240   2.005
    2MMT2    Ob 4369   0.917   2.493   1.981
    2MMT2     H 4370   0.748   2.220   1.818
    2MMT2    Al 4371   0.694   2.736   1.675
    2MMT2    Si 4372   0.770   2.547   1.943
    2MMT2    Si 4373   0.780   2.842   1.944
    2MMT2    Op 4374   0.750   2.574   1.781
    2MMT2    Op 4375   0.796   2.848   1.781
    2MMT2    Oh 4376   1.051   2.746   1.774
    2MMT2    Ob 4377   0.919   2.890   2.005
    2MMT2    Ob 4378   0.750   2.688   2.005
    2MMT2    Ob 4379   0.664   2.941   1.981
    2MMT2     H 4380   1.011   2.669   1.818
    2MMT2    Al 4381   0.954   2.885   1.675
    2MMT2    Si 4382   0.869   2.178   1.407
    2MMT2    Si 4383   0.868   2.780   1.406
    2MMT2    Op 4384   0.888   2.151   1.569
    2MMT2    Op 4385   0.853   2.774   1.569
    2MMT2    Oh 4386   1.113   2.876   1.576
    2MMT2    Ob 4387   1.245   2.732   1.345
    2MMT2    Ob 4388   0.899   2.934   1.346
    2MMT2    Ob 4389   0.984   2.680   1.370
    2MMT2     H 4390   1.153   2.953   1.533
    2MMT2    Al 4391   0.691   2.437   1.675
    2MMT2    Si 4392   1.132   2.626   1.407
    2MMT2    Si 4393   1.121   2.332   1.406
    2MMT2    Op 4394   1.151   2.600   1.569
    2MMT2    Op 4395   1.106   2.325   1.569
    2MMT2    Oh 4396   0.850   2.428   1.576
    2MMT2    Ob 4397   0.982   2.284   1.345
    2MMT2    Ob 4398   1.152   2.486   1.346
    2MMT2    Ob 4399   1.238   2.232   1.370
    2MMT2     H 4400   0.890   2.505   1.533
    2MMT2   Mgo 4401   1.463   2.288   1.675
    2MMT2    Si 4402   1.539   2.099   1.943
    2MMT2    Si 4403   1.549   2.393   1.944
    2MMT2   Omg 4404   1.520   2.125   1.781
    2MMT2   Omg 4405   1.565   2.400   1.781
    2MMT2  Ohmg 4406   1.304   2.297   1.774
    2MMT2    Ob 4407   1.173   2.442   2.005
    2MMT2    Ob 4408   1.519   2.240   2.005
    2MMT2    Ob 4409   1.433   2.493   1.981
    2MMT2     H 4410   1.264   2.220   1.818
    2MMT2    Al 4411   1.210   2.736   1.675
    2MMT2    Si 4412   1.286   2.547   1.943
    2MMT2    Si 4413   1.296   2.842   1.944
    2MMT2    Op 4414   1.266   2.574   1.781
    2MMT2    Op 4415   1.312   2.848   1.781
    2MMT2  Ohmg 4416   1.567   2.746   1.774
    2MMT2    Ob 4417   1.435   2.890   2.005
    2MMT2    Ob 4418   1.266   2.688   2.005
    2MMT2    Ob 4419   1.180   2.941   1.981
    2MMT2     H 4420   1.527   2.669   1.818
    2MMT2    Al 4421   1.470   2.885   1.675
    2MMT2    Si 4422   1.385   2.178   1.407
    2MMT2    Si 4423   1.384   2.780   1.406
    2MMT2   Omg 4424   1.404   2.151   1.569
    2MMT2    Op 4425   1.369   2.774   1.569
    2MMT2  Ohmg 4426   1.629   2.876   1.576
    2MMT2    Ob 4427   1.761   2.732   1.345
    2MMT2    Ob 4428   1.415   2.934   1.346
    2MMT2    Ob 4429   1.500   2.680   1.370
    2MMT2     H 4430   1.669   2.953   1.533
    2MMT2    Al 4431   1.207   2.437   1.675
    2MMT2    Si 4432   1.648   2.626   1.407
    2MMT2    Si 4433   1.637   2.332   1.406
    2MMT2   Omg 4434   1.667   2.600   1.569
    2MMT2   Omg 4435   1.622   2.325   1.569
    2MMT2  Ohmg 4436   1.366   2.428   1.576
    2MMT2    Ob 4437   1.498   2.284   1.345
    2MMT2    Ob 4438   1.668   2.486   1.346
    2MMT2    Ob 4439   1.754   2.232   1.370
    2MMT2     H 4440   1.406   2.505   1.533
    2MMT2   Mgo 4441   1.979   2.288   1.675
    2MMT2    Si 4442   2.055   2.099   1.943
    2MMT2    Si 4443   2.065   2.393   1.944
    2MMT2   Omg 4444   2.036   2.125   1.781
    2MMT2   Omg 4445   2.081   2.400   1.781
    2MMT2  Ohmg 4446   1.820   2.297   1.774
    2MMT2    Ob 4447   1.689   2.442   2.005
    2MMT2    Ob 4448   2.035   2.240   2.005
    2MMT2    Ob 4449   1.949   2.493   1.981
    2MMT2     H 4450   1.780   2.220   1.818
    2MMT2   Mgo 4451   1.726   2.736   1.675
    2MMT2    Si 4452   1.802   2.547   1.943
    2MMT2    Si 4453   1.812   2.842   1.944
    2MMT2   Omg 4454   1.782   2.574   1.781
    2MMT2   Omg 4455   1.828   2.848   1.781
    2MMT2  Ohmg 4456   2.083   2.746   1.774
    2MMT2    Ob 4457   1.951   2.890   2.005
    2MMT2    Ob 4458   1.782   2.688   2.005
    2MMT2    Ob 4459   1.696   2.941   1.981
    2MMT2     H 4460   2.043   2.669   1.818
    2MMT2    Al 4461   1.986   2.885   1.675
    2MMT2    Si 4462   1.901   2.178   1.407
    2MMT2    Si 4463   1.900   2.780   1.406
    2MMT2   Omg 4464   1.920   2.151   1.569
    2MMT2   Omg 4465   1.885   2.774   1.569
    2MMT2  Ohmg 4466   2.145   2.876   1.576
    2MMT2    Ob 4467   2.277   2.732   1.345
    2MMT2    Ob 4468   1.931   2.934   1.346
    2MMT2    Ob 4469   2.016   2.680   1.370
    2MMT2     H 4470   2.185   2.953   1.533
    2MMT2    Al 4471   1.723   2.437   1.675
    2MMT2    Si 4472   2.164   2.626   1.407
    2MMT2    Si 4473   2.153   2.332   1.406
    2MMT2   Omg 4474   2.183   2.600   1.569
    2MMT2   Omg 4475   2.138   2.325   1.569
    2MMT2  Ohmg 4476   1.882   2.428   1.576
    2MMT2    Ob 4477   2.014   2.284   1.345
    2MMT2    Ob 4478   2.184   2.486   1.346
    2MMT2    Ob 4479   2.270   2.232   1.370
    2MMT2     H 4480   1.922   2.505   1.533
    2MMT2    Al 4481   2.495   2.288   1.675
    2MMT2    Si 4482   2.571   2.099   1.943
    2MMT2    Si 4483   2.581   2.393   1.944
    2MMT2    Op 4484   2.552   2.125   1.781
    2MMT2    Op 4485   2.597   2.400   1.781
    2MMT2    Oh 4486   2.336   2.297   1.774
    2MMT2    Ob 4487   2.205   2.442   2.005
    2MMT2    Ob 4488   2.551   2.240   2.005
    2MMT2    Ob 4489   2.465   2.493   1.981
    2MMT2     H 4490   2.296   2.220   1.818
    2MMT2   Mgo 4491   2.242   2.736   1.675
    2MMT2    Si 4492   2.318   2.547   1.943
    2MMT2    Si 4493   2.328   2.842   1.944
    2MMT2   Omg 4494   2.298   2.574   1.781
    2MMT2   Omg 4495   2.344   2.848   1.781
    2MMT2    Oh 4496   2.599   2.746   1.774
    2MMT2    Ob 4497   2.467   2.890   2.005
    2MMT2    Ob 4498   2.298   2.688   2.005
    2MMT2    Ob 4499   2.212   2.941   1.981
    2MMT2     H 4500   2.559   2.669   1.818
    2MMT2    Al 4501   2.502   2.885   1.675
    2MMT2    Si 4502   2.417   2.178   1.407
    2MMT2    Si 4503   2.416   2.780   1.406
    2MMT2    Op 4504   2.436   2.151   1.569
    2MMT2   Omg 4505   2.401   2.774   1.569
    2MMT2    Oh 4506   2.661   2.876   1.576
    2MMT2    Ob 4507   2.793   2.732   1.345
    2MMT2    Ob 4508   2.447   2.934   1.346
    2MMT2    Ob 4509   2.532   2.680   1.370
    2MMT2     H 4510   2.701   2.953   1.533
    2MMT2    Al 4511   2.239   2.437   1.675
    2MMT2    Si 4512   2.680   2.626   1.407
    2MMT2    Si 4513   2.669   2.332   1.406
    2MMT2    Op 4514   2.699   2.600   1.569
    2MMT2    Op 4515   2.654   2.325   1.569
    2MMT2    Oh 4516   2.398   2.428   1.576
    2MMT2    Ob 4517   2.530   2.284   1.345
    2MMT2    Ob 4518   2.700   2.486   1.346
    2MMT2    Ob 4519   2.786   2.232   1.370
    2MMT2     H 4520   2.438   2.505   1.533
    2MMT2    Al 4521   3.011   2.288   1.675
    2MMT2    Si 4522   3.087   2.099   1.943
    2MMT2    Si 4523   3.097   2.393   1.944
    2MMT2   Omg 4524   3.068   2.125   1.781
    2MMT2    Op 4525   3.113   2.400   1.781
    2MMT2    Oh 4526   2.852   2.297   1.774
    2MMT2    Ob 4527   2.721   2.442   2.005
    2MMT2    Ob 4528   3.067   2.240   2.005
    2MMT2    Ob 4529   2.981   2.493   1.981
    2MMT2     H 4530   2.812   2.220   1.818
    2MMT2    Al 4531   2.758   2.736   1.675
    2MMT2    Si 4532   2.834   2.547   1.943
    2MMT2    Si 4533   2.844   2.842   1.944
    2MMT2    Op 4534   2.814   2.574   1.781
    2MMT2   Omg 4535   2.860   2.848   1.781
    2MMT2  Ohmg 4536   3.115   2.746   1.774
    2MMT2    Ob 4537   2.983   2.890   2.005
    2MMT2    Ob 4538   2.814   2.688   2.005
    2MMT2    Ob 4539   2.728   2.941   1.981
    2MMT2     H 4540   3.075   2.669   1.818
    2MMT2   Mgo 4541   3.018   2.885   1.675
    2MMT2    Si 4542   2.933   2.178   1.407
    2MMT2    Si 4543   2.932   2.780   1.406
    2MMT2   Omg 4544   2.952   2.151   1.569
    2MMT2   Omg 4545   2.917   2.774   1.569
    2MMT2  Ohmg 4546   3.177   2.876   1.576
    2MMT2    Ob 4547   3.309   2.732   1.345
    2MMT2    Ob 4548   2.963   2.934   1.346
    2MMT2    Ob 4549   3.048   2.680   1.370
    2MMT2     H 4550   3.217   2.953   1.533
    2MMT2    Al 4551   2.755   2.437   1.675
    2MMT2    Si 4552   3.196   2.626   1.407
    2MMT2    Si 4553   3.185   2.332   1.406
    2MMT2    Op 4554   3.215   2.600   1.569
    2MMT2    Op 4555   3.170   2.325   1.569
    2MMT2    Oh 4556   2.914   2.428   1.576
    2MMT2    Ob 4557   3.046   2.284   1.345
    2MMT2    Ob 4558   3.216   2.486   1.346
    2MMT2    Ob 4559   3.302   2.232   1.370
    2MMT2     H 4560   2.954   2.505   1.533
    2MMT2    Al 4561   3.527   2.288   1.675
    2MMT2    Si 4562   3.603   2.099   1.943
    2MMT2    Si 4563   3.613   2.393   1.944
    2MMT2    Op 4564   3.584   2.125   1.781
    2MMT2    Op 4565   3.629   2.400   1.781
    2MMT2    Oh 4566   3.368   2.297   1.774
    2MMT2    Ob 4567   3.237   2.442   2.005
    2MMT2    Ob 4568   3.583   2.240   2.005
    2MMT2    Ob 4569   3.497   2.493   1.981
    2MMT2     H 4570   3.328   2.220   1.818
    2MMT2    Al 4571   3.274   2.736   1.675
    2MMT2    Si 4572   3.350   2.547   1.943
    2MMT2    Si 4573   3.360   2.842   1.944
    2MMT2    Op 4574   3.330   2.574   1.781
    2MMT2    Op 4575   3.376   2.848   1.781
    2MMT2  Ohmg 4576   3.631   2.746   1.774
    2MMT2    Ob 4577   3.499   2.890   2.005
    2MMT2    Ob 4578   3.330   2.688   2.005
    2MMT2    Ob 4579   3.244   2.941   1.981
    2MMT2     H 4580   3.591   2.669   1.818
    2MMT2    Al 4581   3.534   2.885   1.675
    2MMT2    Si 4582   3.449   2.178   1.407
    2MMT2    Si 4583   3.448   2.780   1.406
    2MMT2    Op 4584   3.468   2.151   1.569
    2MMT2    Op 4585   3.433   2.774   1.569
    2MMT2  Ohmg 4586   3.693   2.876   1.576
    2MMT2    Ob 4587   3.825   2.732   1.345
    2MMT2    Ob 4588   3.479   2.934   1.346
    2MMT2    Ob 4589   3.564   2.680   1.370
    2MMT2     H 4590   3.733   2.953   1.533
    2MMT2    Al 4591   3.271   2.437   1.675
    2MMT2    Si 4592   3.712   2.626   1.407
    2MMT2    Si 4593   3.701   2.332   1.406
    2MMT2   Omg 4594   3.731   2.600   1.569
    2MMT2    Op 4595   3.686   2.325   1.569
    2MMT2    Oh 4596   3.430   2.428   1.576
    2MMT2    Ob 4597   3.562   2.284   1.345
    2MMT2    Ob 4598   3.732   2.486   1.346
    2MMT2    Ob 4599   3.818   2.232   1.370
    2MMT2     H 4600   3.470   2.505   1.533
    2MMT2    Al 4601   4.043   2.288   1.675
    2MMT2    Si 4602   4.119   2.099   1.943
    2MMT2    Si 4603   4.129   2.393   1.944
    2MMT2    Op 4604   4.100   2.125   1.781
    2MMT2    Op 4605   4.145   2.400   1.781
    2MMT2    Oh 4606   3.884   2.297   1.774
    2MMT2    Ob 4607   3.753   2.442   2.005
    2MMT2    Ob 4608   4.099   2.240   2.005
    2MMT2    Ob 4609   4.013   2.493   1.981
    2MMT2     H 4610   3.844   2.220   1.818
    2MMT2   Mgo 4611   3.790   2.736   1.675
    2MMT2    Si 4612   3.866   2.547   1.943
    2MMT2    Si 4613   3.876   2.842   1.944
    2MMT2   Omg 4614   3.846   2.574   1.781
    2MMT2   Omg 4615   3.892   2.848   1.781
    2MMT2    Oh 4616   4.147   2.746   1.774
    2MMT2    Ob 4617   4.015   2.890   2.005
    2MMT2    Ob 4618   3.846   2.688   2.005
    2MMT2    Ob 4619   3.760   2.941   1.981
    2MMT2     H 4620   4.107   2.669   1.818
    2MMT2    Al 4621   4.050   2.885   1.675
    2MMT2    Si 4622   3.965   2.178   1.407
    2MMT2    Si 4623   3.964   2.780   1.406
    2MMT2    Op 4624   3.984   2.151   1.569
    2MMT2   Omg 4625   3.949   2.774   1.569
    2MMT2    Oh 4626   4.209   2.876   1.576
    2MMT2    Ob 4627   4.341   2.732   1.345
    2MMT2    Ob 4628   3.995   2.934   1.346
    2MMT2    Ob 4629   4.080   2.680   1.370
    2MMT2     H 4630   4.249   2.953   1.533
    2MMT2    Al 4631   3.787   2.437   1.675
    2MMT2    Si 4632   4.228   2.626   1.407
    2MMT2    Si 4633   4.217   2.332   1.406
    2MMT2    Op 4634   4.247   2.600   1.569
    2MMT2    Op 4635   4.202   2.325   1.569
    2MMT2    Oh 4636   3.946   2.428   1.576
    2MMT2    Ob 4637   4.078   2.284   1.345
    2MMT2    Ob 4638   4.248   2.486   1.346
    2MMT2    Ob 4639   4.334   2.232   1.370
    2MMT2     H 4640   3.986   2.505   1.533
    2MMT2    Al 4641   4.559   2.288   1.675
    2MMT2    Si 4642   4.635   2.099   1.943
    2MMT2    Si 4643   4.645   2.393   1.944
    2MMT2   Omg 4644   4.616   2.125   1.781
    2MMT2    Op 4645   4.661   2.400   1.781
    2MMT2    Oh 4646   4.400   2.297   1.774
    2MMT2    Ob 4647   4.269   2.442   2.005
    2MMT2    Ob 4648   4.615   2.240   2.005
    2MMT2    Ob 4649   4.529   2.493   1.981
    2MMT2     H 4650   4.360   2.220   1.818
    2MMT2    Al 4651   4.306   2.736   1.675
    2MMT2    Si 4652   4.382   2.547   1.943
    2MMT2    Si 4653   4.392   2.842   1.944
    2MMT2    Op 4654   4.362   2.574   1.781
    2MMT2    Op 4655   4.408   2.848   1.781
    2MMT2    Oh 4656   4.663   2.746   1.774
    2MMT2    Ob 4657   4.531   2.890   2.005
    2MMT2    Ob 4658   4.362   2.688   2.005
    2MMT2    Ob 4659   4.276   2.941   1.981
    2MMT2     H 4660   4.623   2.669   1.818
    2MMT2    Al 4661   4.566   2.885   1.675
    2MMT2    Si 4662   4.481   2.178   1.407
    2MMT2    Si 4663   4.480   2.780   1.406
    2MMT2   Omg 4664   4.500   2.151   1.569
    2MMT2    Op 4665   4.465   2.774   1.569
    2MMT2    Oh 4666   4.725   2.876   1.576
    2MMT2    Ob 4667   4.857   2.732   1.345
    2MMT2    Ob 4668   4.511   2.934   1.346
    2MMT2    Ob 4669   4.596   2.680   1.370
    2MMT2     H 4670   4.765   2.953   1.533
    2MMT2    Al 4671   4.303   2.437   1.675
    2MMT2    Si 4672   4.744   2.626   1.407
    2MMT2    Si 4673   4.733   2.332   1.406
    2MMT2    Op 4674   4.763   2.600   1.569
    2MMT2    Op 4675   4.718   2.325   1.569
    2MMT2    Oh 4676   4.462   2.428   1.576
    2MMT2    Ob 4677   4.594   2.284   1.345
    2MMT2    Ob 4678   4.764   2.486   1.346
    2MMT2    Ob 4679   4.850   2.232   1.370
    2MMT2     H 4680   4.502   2.505   1.533
    2MMT2   Mgo 4681   5.075   2.288   1.675
    2MMT2    Si 4682   5.151   2.099   1.943
    2MMT2    Si 4683   5.161   2.393   1.944
    2MMT2   Omg 4684   5.132   2.125   1.781
    2MMT2   Omg 4685   5.177   2.400   1.781
    2MMT2  Ohmg 4686   4.916   2.297   1.774
    2MMT2    Ob 4687   4.785   2.442   2.005
    2MMT2    Ob 4688   5.131   2.240   2.005
    2MMT2    Ob 4689   5.045   2.493   1.981
    2MMT2     H 4690   4.876   2.220   1.818
    2MMT2    Al 4691   4.822   2.736   1.675
    2MMT2    Si 4692   4.898   2.547   1.943
    2MMT2    Si 4693   4.908   2.842   1.944
    2MMT2    Op 4694   4.878   2.574   1.781
    2MMT2   Omg 4695   4.924   2.848   1.781
    2MMT2  Ohmg 4696   5.179   2.746   1.774
    2MMT2    Ob 4697   5.047   2.890   2.005
    2MMT2    Ob 4698   4.878   2.688   2.005
    2MMT2    Ob 4699   4.792   2.941   1.981
    2MMT2     H 4700   5.139   2.669   1.818
    2MMT2   Mgo 4701   5.082   2.885   1.675
    2MMT2    Si 4702   4.997   2.178   1.407
    2MMT2    Si 4703   4.996   2.780   1.406
    2MMT2   Omg 4704   5.016   2.151   1.569
    2MMT2   Omg 4705   4.981   2.774   1.569
    2MMT2  Ohmg 4706   5.241   2.876   1.576
    2MMT2    Ob 4707   5.373   2.732   1.345
    2MMT2    Ob 4708   5.027   2.934   1.346
    2MMT2    Ob 4709   5.112   2.680   1.370
    2MMT2     H 4710   5.281   2.953   1.533
    2MMT2    Al 4711   4.819   2.437   1.675
    2MMT2    Si 4712   5.260   2.626   1.407
    2MMT2    Si 4713   5.249   2.332   1.406
    2MMT2    Op 4714   5.279   2.600   1.569
    2MMT2   Omg 4715   5.234   2.325   1.569
    2MMT2  Ohmg 4716   4.978   2.428   1.576
    2MMT2    Ob 4717   5.110   2.284   1.345
    2MMT2    Ob 4718   5.280   2.486   1.346
    2MMT2    Ob 4719   5.366   2.232   1.370
    2MMT2     H 4720   5.018   2.505   1.533
    2MMT2   Mgo 4721   5.591   2.288   1.675
    2MMT2    Si 4722   5.667   2.099   1.943
    2MMT2    Si 4723   5.677   2.393   1.944
    2MMT2   Omg 4724   5.648   2.125   1.781
    2MMT2   Omg 4725   5.693   2.400   1.781
    2MMT2  Ohmg 4726   5.432   2.297   1.774
    2MMT2    Ob 4727   5.301   2.442   2.005
    2MMT2    Ob 4728   5.647   2.240   2.005
    2MMT2    Ob 4729   5.561   2.493   1.981
    2MMT2     H 4730   5.392   2.220   1.818
    2MMT2    Al 4731   5.338   2.736   1.675
    2MMT2    Si 4732   5.414   2.547   1.943
    2MMT2    Si 4733   5.424   2.842   1.944
    2MMT2    Op 4734   5.394   2.574   1.781
    2MMT2   Omg 4735   5.440   2.848   1.781
    2MMT2  Ohmg 4736   5.695   2.746   1.774
    2MMT2    Ob 4737   5.563   2.890   2.005
    2MMT2    Ob 4738   5.394   2.688   2.005
    2MMT2    Ob 4739   5.308   2.941   1.981
    2MMT2     H 4740   5.655   2.669   1.818
    2MMT2   Mgo 4741   5.598   2.885   1.675
    2MMT2    Si 4742   5.513   2.178   1.407
    2MMT2    Si 4743   5.512   2.780   1.406
    2MMT2   Omg 4744   5.532   2.151   1.569
    2MMT2   Omg 4745   5.497   2.774   1.569
    2MMT2  Ohmg 4746   5.757   2.876   1.576
    2MMT2    Ob 4747   5.889   2.732   1.345
    2MMT2    Ob 4748   5.543   2.934   1.346
    2MMT2    Ob 4749   5.628   2.680   1.370
    2MMT2     H 4750   5.797   2.953   1.533
    2MMT2    Al 4751   5.335   2.437   1.675
    2MMT2    Si 4752   5.776   2.626   1.407
    2MMT2    Si 4753   5.765   2.332   1.406
    2MMT2    Op 4754   5.795   2.600   1.569
    2MMT2   Omg 4755   5.750   2.325   1.569
    2MMT2  Ohmg 4756   5.494   2.428   1.576
    2MMT2    Ob 4757   5.626   2.284   1.345
    2MMT2    Ob 4758   5.796   2.486   1.346
    2MMT2    Ob 4759   5.882   2.232   1.370
    2MMT2     H 4760   5.534   2.505   1.533
    2MMT2   Mgo 4761   6.107   2.288   1.675
    2MMT2    Si 4762   6.183   2.099   1.943
    2MMT2    Si 4763   0.001   2.393   1.944
    2MMT2   Omg 4764   6.164   2.125   1.781
    2MMT2   Omg 4765   0.017   2.400   1.781
    2MMT2  Ohmg 4766   5.948   2.297   1.774
    2MMT2    Ob 4767   5.817   2.442   2.005
    2MMT2    Ob 4768   6.163   2.240   2.005
    2MMT2    Ob 4769   6.077   2.493   1.981
    2MMT2     H 4770   5.908   2.220   1.818
    2MMT2    Al 4771   5.854   2.736   1.675
    2MMT2    Si 4772   5.930   2.547   1.943
    2MMT2    Si 4773   5.940   2.842   1.944
    2MMT2    Op 4774   5.910   2.574   1.781
    2MMT2   Omg 4775   5.956   2.848   1.781
    2MMT2  Ohmg 4776   0.019   2.746   1.774
    2MMT2    Ob 4777   6.079   2.890   2.005
    2MMT2    Ob 4778   5.910   2.688   2.005
    2MMT2    Ob 4779   5.824   2.941   1.981
    2MMT2     H 4780   6.171   2.669   1.818
    2MMT2   Mgo 4781   6.114   2.885   1.675
    2MMT2    Si 4782   6.029   2.178   1.407
    2MMT2    Si 4783   6.028   2.780   1.406
    2MMT2   Omg 4784   6.048   2.151   1.569
    2MMT2   Omg 4785   6.013   2.774   1.569
    2MMT2  Ohmg 4786   0.081   2.876   1.576
    2MMT2    Ob 4787   0.213   2.732   1.345
    2MMT2    Ob 4788   6.059   2.934   1.346
    2MMT2    Ob 4789   6.144   2.680   1.370
    2MMT2     H 4790   0.121   2.953   1.533
    2MMT2    Al 4791   5.851   2.437   1.675
    2MMT2    Si 4792   0.100   2.626   1.407
    2MMT2    Si 4793   0.089   2.332   1.406
    2MMT2    Op 4794   0.119   2.600   1.569
    2MMT2   Omg 4795   0.074   2.325   1.569
    2MMT2  Ohmg 4796   6.010   2.428   1.576
    2MMT2    Ob 4797   6.142   2.284   1.345
    2MMT2    Ob 4798   0.120   2.486   1.346
    2MMT2    Ob 4799   0.206   2.232   1.370
    2MMT2     H 4800   6.050   2.505   1.533
    2MMT2    Al 4801   0.441   3.185   1.675
    2MMT2    Si 4802   0.516   2.995   1.943
    2MMT2    Si 4803   0.527   3.290   1.944
    2MMT2    Op 4804   0.497   3.022   1.781
    2MMT2    Op 4805   0.542   3.296   1.781
    2MMT2  Ohmg 4806   0.282   3.194   1.774
    2MMT2    Ob 4807   0.150   3.338   2.005
    2MMT2    Ob 4808   0.497   3.136   2.005
    2MMT2    Ob 4809   0.411   3.389   1.981
    2MMT2     H 4810   0.242   3.117   1.818
    2MMT2    Al 4811   0.188   3.633   1.675
    2MMT2    Si 4812   0.263   3.443   1.943
    2MMT2    Si 4813   0.274   3.738   1.944
    2MMT2   Omg 4814   0.244   3.470   1.781
    2MMT2    Op 4815   0.289   3.745   1.781
    2MMT2    Oh 4816   0.545   3.642   1.774
    2MMT2    Ob 4817   0.413   3.786   2.005
    2MMT2    Ob 4818   0.243   3.584   2.005
    2MMT2    Ob 4819   0.158   3.838   1.981
    2MMT2     H 4820   0.505   3.565   1.818
    2MMT2    Al 4821   0.448   3.782   1.675
    2MMT2    Si 4822   0.363   3.075   1.407
    2MMT2    Si 4823   0.362   3.677   1.406
    2MMT2    Op 4824   0.382   3.048   1.569
    2MMT2    Op 4825   0.347   3.670   1.569
    2MMT2    Oh 4826   0.607   3.773   1.576
    2MMT2    Ob 4827   0.739   3.628   1.345
    2MMT2    Ob 4828   0.392   3.830   1.346
    2MMT2    Ob 4829   0.478   3.577   1.370
    2MMT2     H 4830   0.647   3.850   1.533
    2MMT2   Mgo 4831   0.185   3.333   1.675
    2MMT2    Si 4832   0.626   3.523   1.407
    2MMT2    Si 4833   0.615   3.228   1.406
    2MMT2    Op 4834   0.645   3.496   1.569
    2MMT2    Op 4835   0.600   3.222   1.569
    2MMT2  Ohmg 4836   0.344   3.324   1.576
    2MMT2    Ob 4837   0.476   3.180   1.345
    2MMT2    Ob 4838   0.646   3.382   1.346
    2MMT2    Ob 4839   0.731   3.129   1.370
    2MMT2     H 4840   0.384   3.401   1.533
    2MMT2   Mgo 4841   0.957   3.185   1.675
    2MMT2    Si 4842   1.032   2.995   1.943
    2MMT2    Si 4843   1.043   3.290   1.944
    2MMT2   Omg 4844   1.013   3.022   1.781
    2MMT2   Omg 4845   1.058   3.296   1.781
    2MMT2  Ohmg 4846   0.798   3.194   1.774
    2MMT2    Ob 4847   0.666   3.338   2.005
    2MMT2    Ob 4848   1.013   3.136   2.005
    2MMT2    Ob 4849   0.927   3.389   1.981
    2MMT2     H 4850   0.758   3.117   1.818
    2MMT2    Al 4851   0.704   3.633   1.675
    2MMT2    Si 4852   0.779   3.443   1.943
    2MMT2    Si 4853   0.790   3.738   1.944
    2MMT2    Op 4854   0.760   3.470   1.781
    2MMT2    Op 4855   0.805   3.745   1.781
    2MMT2    Oh 4856   1.061   3.642   1.774
    2MMT2    Ob 4857   0.929   3.786   2.005
    2MMT2    Ob 4858   0.759   3.584   2.005
    2MMT2    Ob 4859   0.674   3.838   1.981
    2MMT2     H 4860   1.021   3.565   1.818
    2MMT2    Al 4861   0.964   3.782   1.675
    2MMT2    Si 4862   0.879   3.075   1.407
    2MMT2    Si 4863   0.878   3.677   1.406
    2MMT2   Omg 4864   0.898   3.048   1.569
    2MMT2    Op 4865   0.863   3.670   1.569
    2MMT2    Oh 4866   1.123   3.773   1.576
    2MMT2    Ob 4867   1.255   3.628   1.345
    2MMT2    Ob 4868   0.908   3.830   1.346
    2MMT2    Ob 4869   0.994   3.577   1.370
    2MMT2     H 4870   1.163   3.850   1.533
    2MMT2    Al 4871   0.701   3.333   1.675
    2MMT2    Si 4872   1.142   3.523   1.407
    2MMT2    Si 4873   1.131   3.228   1.406
    2MMT2    Op 4874   1.161   3.496   1.569
    2MMT2   Omg 4875   1.116   3.222   1.569
    2MMT2  Ohmg 4876   0.860   3.324   1.576
    2MMT2    Ob 4877   0.992   3.180   1.345
    2MMT2    Ob 4878   1.162   3.382   1.346
    2MMT2    Ob 4879   1.247   3.129   1.370
    2MMT2     H 4880   0.900   3.401   1.533
    2MMT2   Mgo 4881   1.473   3.185   1.675
    2MMT2    Si 4882   1.548   2.995   1.943
    2MMT2    Si 4883   1.559   3.290   1.944
    2MMT2   Omg 4884   1.529   3.022   1.781
    2MMT2   Omg 4885   1.574   3.296   1.781
    2MMT2  Ohmg 4886   1.314   3.194   1.774
    2MMT2    Ob 4887   1.182   3.338   2.005
    2MMT2    Ob 4888   1.529   3.136   2.005
    2MMT2    Ob 4889   1.443   3.389   1.981
    2MMT2     H 4890   1.274   3.117   1.818
    2MMT2    Al 4891   1.220   3.633   1.675
    2MMT2    Si 4892   1.295   3.443   1.943
    2MMT2    Si 4893   1.306   3.738   1.944
    2MMT2    Op 4894   1.276   3.470   1.781
    2MMT2   Omg 4895   1.321   3.745   1.781
    2MMT2  Ohmg 4896   1.577   3.642   1.774
    2MMT2    Ob 4897   1.445   3.786   2.005
    2MMT2    Ob 4898   1.275   3.584   2.005
    2MMT2    Ob 4899   1.190   3.838   1.981
    2MMT2     H 4900   1.537   3.565   1.818
    2MMT2   Mgo 4901   1.480   3.782   1.675
    2MMT2    Si 4902   1.395   3.075   1.407
    2MMT2    Si 4903   1.394   3.677   1.406
    2MMT2   Omg 4904   1.414   3.048   1.569
    2MMT2   Omg 4905   1.379   3.670   1.569
    2MMT2  Ohmg 4906   1.639   3.773   1.576
    2MMT2    Ob 4907   1.771   3.628   1.345
    2MMT2    Ob 4908   1.424   3.830   1.346
    2MMT2    Ob 4909   1.510   3.577   1.370
    2MMT2     H 4910   1.679   3.850   1.533
    2MMT2    Al 4911   1.217   3.333   1.675
    2MMT2    Si 4912   1.658   3.523   1.407
    2MMT2    Si 4913   1.647   3.228   1.406
    2MMT2    Op 4914   1.677   3.496   1.569
    2MMT2   Omg 4915   1.632   3.222   1.569
    2MMT2  Ohmg 4916   1.376   3.324   1.576
    2MMT2    Ob 4917   1.508   3.180   1.345
    2MMT2    Ob 4918   1.678   3.382   1.346
    2MMT2    Ob 4919   1.763   3.129   1.370
    2MMT2     H 4920   1.416   3.401   1.533
    2MMT2    Al 4921   1.989   3.185   1.675
    2MMT2    Si 4922   2.064   2.995   1.943
    2MMT2    Si 4923   2.075   3.290   1.944
    2MMT2    Op 4924   2.045   3.022   1.781
    2MMT2    Op 4925   2.090   3.296   1.781
    2MMT2    Oh 4926   1.830   3.194   1.774
    2MMT2    Ob 4927   1.698   3.338   2.005
    2MMT2    Ob 4928   2.045   3.136   2.005
    2MMT2    Ob 4929   1.959   3.389   1.981
    2MMT2     H 4930   1.790   3.117   1.818
    2MMT2    Al 4931   1.736   3.633   1.675
    2MMT2    Si 4932   1.811   3.443   1.943
    2MMT2    Si 4933   1.822   3.738   1.944
    2MMT2    Op 4934   1.792   3.470   1.781
    2MMT2   Omg 4935   1.837   3.745   1.781
    2MMT2  Ohmg 4936   2.093   3.642   1.774
    2MMT2    Ob 4937   1.961   3.786   2.005
    2MMT2    Ob 4938   1.791   3.584   2.005
    2MMT2    Ob 4939   1.706   3.838   1.981
    2MMT2     H 4940   2.053   3.565   1.818
    2MMT2   Mgo 4941   1.996   3.782   1.675
    2MMT2    Si 4942   1.911   3.075   1.407
    2MMT2    Si 4943   1.910   3.677   1.406
    2MMT2    Op 4944   1.930   3.048   1.569
    2MMT2   Omg 4945   1.895   3.670   1.569
    2MMT2  Ohmg 4946   2.155   3.773   1.576
    2MMT2    Ob 4947   2.287   3.628   1.345
    2MMT2    Ob 4948   1.940   3.830   1.346
    2MMT2    Ob 4949   2.026   3.577   1.370
    2MMT2     H 4950   2.195   3.850   1.533
    2MMT2    Al 4951   1.733   3.333   1.675
    2MMT2    Si 4952   2.174   3.523   1.407
    2MMT2    Si 4953   2.163   3.228   1.406
    2MMT2    Op 4954   2.193   3.496   1.569
    2MMT2    Op 4955   2.148   3.222   1.569
    2MMT2    Oh 4956   1.892   3.324   1.576
    2MMT2    Ob 4957   2.024   3.180   1.345
    2MMT2    Ob 4958   2.194   3.382   1.346
    2MMT2    Ob 4959   2.279   3.129   1.370
    2MMT2     H 4960   1.932   3.401   1.533
    2MMT2   Mgo 4961   2.505   3.185   1.675
    2MMT2    Si 4962   2.580   2.995   1.943
    2MMT2    Si 4963   2.591   3.290   1.944
    2MMT2   Omg 4964   2.561   3.022   1.781
    2MMT2   Omg 4965   2.606   3.296   1.781
    2MMT2  Ohmg 4966   2.346   3.194   1.774
    2MMT2    Ob 4967   2.214   3.338   2.005
    2MMT2    Ob 4968   2.561   3.136   2.005
    2MMT2    Ob 4969   2.475   3.389   1.981
    2MMT2     H 4970   2.306   3.117   1.818
    2MMT2    Al 4971   2.252   3.633   1.675
    2MMT2    Si 4972   2.327   3.443   1.943
    2MMT2    Si 4973   2.338   3.738   1.944
    2MMT2    Op 4974   2.308   3.470   1.781
    2MMT2    Op 4975   2.353   3.745   1.781
    2MMT2    Oh 4976   2.609   3.642   1.774
    2MMT2    Ob 4977   2.477   3.786   2.005
    2MMT2    Ob 4978   2.307   3.584   2.005
    2MMT2    Ob 4979   2.222   3.838   1.981
    2MMT2     H 4980   2.569   3.565   1.818
    2MMT2    Al 4981   2.512   3.782   1.675
    2MMT2    Si 4982   2.427   3.075   1.407
    2MMT2    Si 4983   2.426   3.677   1.406
    2MMT2   Omg 4984   2.446   3.048   1.569
    2MMT2    Op 4985   2.411   3.670   1.569
    2MMT2    Oh 4986   2.671   3.773   1.576
    2MMT2    Ob 4987   2.803   3.628   1.345
    2MMT2    Ob 4988   2.456   3.830   1.346
    2MMT2    Ob 4989   2.542   3.577   1.370
    2MMT2     H 4990   2.711   3.850   1.533
    2MMT2    Al 4991   2.249   3.333   1.675
    2MMT2    Si 4992   2.690   3.523   1.407
    2MMT2    Si 4993   2.679   3.228   1.406
    2MMT2    Op 4994   2.709   3.496   1.569
    2MMT2   Omg 4995   2.664   3.222   1.569
    2MMT2  Ohmg 4996   2.408   3.324   1.576
    2MMT2    Ob 4997   2.540   3.180   1.345
    2MMT2    Ob 4998   2.710   3.382   1.346
    2MMT2    Ob 4999   2.795   3.129   1.370
    2MMT2     H 5000   2.448   3.401   1.533
    2MMT2    Al 5001   3.021   3.185   1.675
    2MMT2    Si 5002   3.096   2.995   1.943
    2MMT2    Si 5003   3.107   3.290   1.944
    2MMT2   Omg 5004   3.077   3.022   1.781
    2MMT2   Omg 5005   3.122   3.296   1.781
    2MMT2    Oh 5006   2.862   3.194   1.774
    2MMT2    Ob 5007   2.730   3.338   2.005
    2MMT2    Ob 5008   3.077   3.136   2.005
    2MMT2    Ob 5009   2.991   3.389   1.981
    2MMT2     H 5010   2.822   3.117   1.818
    2MMT2    Al 5011   2.768   3.633   1.675
    2MMT2    Si 5012   2.843   3.443   1.943
    2MMT2    Si 5013   2.854   3.738   1.944
    2MMT2    Op 5014   2.824   3.470   1.781
    2MMT2    Op 5015   2.869   3.745   1.781
    2MMT2    Oh 5016   3.125   3.642   1.774
    2MMT2    Ob 5017   2.993   3.786   2.005
    2MMT2    Ob 5018   2.823   3.584   2.005
    2MMT2    Ob 5019   2.738   3.838   1.981
    2MMT2     H 5020   3.085   3.565   1.818
    2MMT2    Al 5021   3.028   3.782   1.675
    2MMT2    Si 5022   2.943   3.075   1.407
    2MMT2    Si 5023   2.942   3.677   1.406
    2MMT2   Omg 5024   2.962   3.048   1.569
    2MMT2    Op 5025   2.927   3.670   1.569
    2MMT2    Oh 5026   3.187   3.773   1.576
    2MMT2    Ob 5027   3.319   3.628   1.345
    2MMT2    Ob 5028   2.972   3.830   1.346
    2MMT2    Ob 5029   3.058   3.577   1.370
    2MMT2     H 5030   3.227   3.850   1.533
    2MMT2    Al 5031   2.765   3.333   1.675
    2MMT2    Si 5032   3.206   3.523   1.407
    2MMT2    Si 5033   3.195   3.228   1.406
    2MMT2   Omg 5034   3.225   3.496   1.569
    2MMT2   Omg 5035   3.180   3.222   1.569
    2MMT2    Oh 5036   2.924   3.324   1.576
    2MMT2    Ob 5037   3.056   3.180   1.345
    2MMT2    Ob 5038   3.226   3.382   1.346
    2MMT2    Ob 5039   3.311   3.129   1.370
    2MMT2     H 5040   2.964   3.401   1.533
    2MMT2    Al 5041   3.537   3.185   1.675
    2MMT2    Si 5042   3.612   2.995   1.943
    2MMT2    Si 5043   3.623   3.290   1.944
    2MMT2    Op 5044   3.593   3.022   1.781
    2MMT2    Op 5045   3.638   3.296   1.781
    2MMT2  Ohmg 5046   3.378   3.194   1.774
    2MMT2    Ob 5047   3.246   3.338   2.005
    2MMT2    Ob 5048   3.593   3.136   2.005
    2MMT2    Ob 5049   3.507   3.389   1.981
    2MMT2     H 5050   3.338   3.117   1.818
    2MMT2    Al 5051   3.284   3.633   1.675
    2MMT2    Si 5052   3.359   3.443   1.943
    2MMT2    Si 5053   3.370   3.738   1.944
    2MMT2   Omg 5054   3.340   3.470   1.781
    2MMT2    Op 5055   3.385   3.745   1.781
    2MMT2  Ohmg 5056   3.641   3.642   1.774
    2MMT2    Ob 5057   3.509   3.786   2.005
    2MMT2    Ob 5058   3.339   3.584   2.005
    2MMT2    Ob 5059   3.254   3.838   1.981
    2MMT2     H 5060   3.601   3.565   1.818
    2MMT2    Al 5061   3.544   3.782   1.675
    2MMT2    Si 5062   3.459   3.075   1.407
    2MMT2    Si 5063   3.458   3.677   1.406
    2MMT2    Op 5064   3.478   3.048   1.569
    2MMT2    Op 5065   3.443   3.670   1.569
    2MMT2  Ohmg 5066   3.703   3.773   1.576
    2MMT2    Ob 5067   3.835   3.628   1.345
    2MMT2    Ob 5068   3.488   3.830   1.346
    2MMT2    Ob 5069   3.574   3.577   1.370
    2MMT2     H 5070   3.743   3.850   1.533
    2MMT2   Mgo 5071   3.281   3.333   1.675
    2MMT2    Si 5072   3.722   3.523   1.407
    2MMT2    Si 5073   3.711   3.228   1.406
    2MMT2   Omg 5074   3.741   3.496   1.569
    2MMT2    Op 5075   3.696   3.222   1.569
    2MMT2  Ohmg 5076   3.440   3.324   1.576
    2MMT2    Ob 5077   3.572   3.180   1.345
    2MMT2    Ob 5078   3.742   3.382   1.346
    2MMT2    Ob 5079   3.827   3.129   1.370
    2MMT2     H 5080   3.480   3.401   1.533
    2MMT2    Al 5081   4.053   3.185   1.675
    2MMT2    Si 5082   4.128   2.995   1.943
    2MMT2    Si 5083   4.139   3.290   1.944
    2MMT2    Op 5084   4.109   3.022   1.781
    2MMT2   Omg 5085   4.154   3.296   1.781
    2MMT2    Oh 5086   3.894   3.194   1.774
    2MMT2    Ob 5087   3.762   3.338   2.005
    2MMT2    Ob 5088   4.109   3.136   2.005
    2MMT2    Ob 5089   4.023   3.389   1.981
    2MMT2     H 5090   3.854   3.117   1.818
    2MMT2   Mgo 5091   3.800   3.633   1.675
    2MMT2    Si 5092   3.875   3.443   1.943
    2MMT2    Si 5093   3.886   3.738   1.944
    2MMT2   Omg 5094   3.856   3.470   1.781
    2MMT2   Omg 5095   3.901   3.745   1.781
    2MMT2    Oh 5096   4.157   3.642   1.774
    2MMT2    Ob 5097   4.025   3.786   2.005
    2MMT2    Ob 5098   3.855   3.584   2.005
    2MMT2    Ob 5099   3.770   3.838   1.981
    2MMT2     H 5100   4.117   3.565   1.818
    2MMT2    Al 5101   4.060   3.782   1.675
    2MMT2    Si 5102   3.975   3.075   1.407
    2MMT2    Si 5103   3.974   3.677   1.406
    2MMT2    Op 5104   3.994   3.048   1.569
    2MMT2   Omg 5105   3.959   3.670   1.569
    2MMT2    Oh 5106   4.219   3.773   1.576
    2MMT2    Ob 5107   4.351   3.628   1.345
    2MMT2    Ob 5108   4.004   3.830   1.346
    2MMT2    Ob 5109   4.090   3.577   1.370
    2MMT2     H 5110   4.259   3.850   1.533
    2MMT2    Al 5111   3.797   3.333   1.675
    2MMT2    Si 5112   4.238   3.523   1.407
    2MMT2    Si 5113   4.227   3.228   1.406
    2MMT2   Omg 5114   4.257   3.496   1.569
    2MMT2   Omg 5115   4.212   3.222   1.569
    2MMT2    Oh 5116   3.956   3.324   1.576
    2MMT2    Ob 5117   4.088   3.180   1.345
    2MMT2    Ob 5118   4.258   3.382   1.346
    2MMT2    Ob 5119   4.343   3.129   1.370
    2MMT2     H 5120   3.996   3.401   1.533
    2MMT2    Al 5121   4.569   3.185   1.675
    2MMT2    Si 5122   4.644   2.995   1.943
    2MMT2    Si 5123   4.655   3.290   1.944
    2MMT2    Op 5124   4.625   3.022   1.781
    2MMT2    Op 5125   4.670   3.296   1.781
    2MMT2  Ohmg 5126   4.410   3.194   1.774
    2MMT2    Ob 5127   4.278   3.338   2.005
    2MMT2    Ob 5128   4.625   3.136   2.005
    2MMT2    Ob 5129   4.539   3.389   1.981
    2MMT2     H 5130   4.370   3.117   1.818
    2MMT2    Al 5131   4.316   3.633   1.675
    2MMT2    Si 5132   4.391   3.443   1.943
    2MMT2    Si 5133   4.402   3.738   1.944
    2MMT2   Omg 5134   4.372   3.470   1.781
    2MMT2    Op 5135   4.417   3.745   1.781
    2MMT2  Ohmg 5136   4.673   3.642   1.774
    2MMT2    Ob 5137   4.541   3.786   2.005
    2MMT2    Ob 5138   4.371   3.584   2.005
    2MMT2    Ob 5139   4.286   3.838   1.981
    2MMT2     H 5140   4.633   3.565   1.818
    2MMT2    Al 5141   4.576   3.782   1.675
    2MMT2    Si 5142   4.491   3.075   1.407
    2MMT2    Si 5143   4.490   3.677   1.406
    2MMT2    Op 5144   4.510   3.048   1.569
    2MMT2    Op 5145   4.475   3.670   1.569
    2MMT2  Ohmg 5146   4.735   3.773   1.576
    2MMT2    Ob 5147   4.867   3.628   1.345
    2MMT2    Ob 5148   4.520   3.830   1.346
    2MMT2    Ob 5149   4.606   3.577   1.370
    2MMT2     H 5150   4.775   3.850   1.533
    2MMT2   Mgo 5151   4.313   3.333   1.675
    2MMT2    Si 5152   4.754   3.523   1.407
    2MMT2    Si 5153   4.743   3.228   1.406
    2MMT2   Omg 5154   4.773   3.496   1.569
    2MMT2    Op 5155   4.728   3.222   1.569
    2MMT2  Ohmg 5156   4.472   3.324   1.576
    2MMT2    Ob 5157   4.604   3.180   1.345
    2MMT2    Ob 5158   4.774   3.382   1.346
    2MMT2    Ob 5159   4.859   3.129   1.370
    2MMT2     H 5160   4.512   3.401   1.533
    2MMT2    Al 5161   5.085   3.185   1.675
    2MMT2    Si 5162   5.160   2.995   1.943
    2MMT2    Si 5163   5.171   3.290   1.944
    2MMT2   Omg 5164   5.141   3.022   1.781
    2MMT2   Omg 5165   5.186   3.296   1.781
    2MMT2    Oh 5166   4.926   3.194   1.774
    2MMT2    Ob 5167   4.794   3.338   2.005
    2MMT2    Ob 5168   5.141   3.136   2.005
    2MMT2    Ob 5169   5.055   3.389   1.981
    2MMT2     H 5170   4.886   3.117   1.818
    2MMT2   Mgo 5171   4.832   3.633   1.675
    2MMT2    Si 5172   4.907   3.443   1.943
    2MMT2    Si 5173   4.918   3.738   1.944
    2MMT2   Omg 5174   4.888   3.470   1.781
    2MMT2   Omg 5175   4.933   3.745   1.781
    2MMT2    Oh 5176   5.189   3.642   1.774
    2MMT2    Ob 5177   5.057   3.786   2.005
    2MMT2    Ob 5178   4.887   3.584   2.005
    2MMT2    Ob 5179   4.802   3.838   1.981
    2MMT2     H 5180   5.149   3.565   1.818
    2MMT2    Al 5181   5.092   3.782   1.675
    2MMT2    Si 5182   5.007   3.075   1.407
    2MMT2    Si 5183   5.006   3.677   1.406
    2MMT2   Omg 5184   5.026   3.048   1.569
    2MMT2   Omg 5185   4.991   3.670   1.569
    2MMT2    Oh 5186   5.251   3.773   1.576
    2MMT2    Ob 5187   5.383   3.628   1.345
    2MMT2    Ob 5188   5.036   3.830   1.346
    2MMT2    Ob 5189   5.122   3.577   1.370
    2MMT2     H 5190   5.291   3.850   1.533
    2MMT2    Al 5191   4.829   3.333   1.675
    2MMT2    Si 5192   5.270   3.523   1.407
    2MMT2    Si 5193   5.259   3.228   1.406
    2MMT2   Omg 5194   5.289   3.496   1.569
    2MMT2   Omg 5195   5.244   3.222   1.569
    2MMT2    Oh 5196   4.988   3.324   1.576
    2MMT2    Ob 5197   5.120   3.180   1.345
    2MMT2    Ob 5198   5.290   3.382   1.346
    2MMT2    Ob 5199   5.375   3.129   1.370
    2MMT2     H 5200   5.028   3.401   1.533
    2MMT2    Al 5201   5.601   3.185   1.675
    2MMT2    Si 5202   5.676   2.995   1.943
    2MMT2    Si 5203   5.687   3.290   1.944
    2MMT2   Omg 5204   5.657   3.022   1.781
    2MMT2    Op 5205   5.702   3.296   1.781
    2MMT2  Ohmg 5206   5.442   3.194   1.774
    2MMT2    Ob 5207   5.310   3.338   2.005
    2MMT2    Ob 5208   5.657   3.136   2.005
    2MMT2    Ob 5209   5.571   3.389   1.981
    2MMT2     H 5210   5.402   3.117   1.818
    2MMT2    Al 5211   5.348   3.633   1.675
    2MMT2    Si 5212   5.423   3.443   1.943
    2MMT2    Si 5213   5.434   3.738   1.944
    2MMT2   Omg 5214   5.404   3.470   1.781
    2MMT2   Omg 5215   5.449   3.745   1.781
    2MMT2  Ohmg 5216   5.705   3.642   1.774
    2MMT2    Ob 5217   5.573   3.786   2.005
    2MMT2    Ob 5218   5.403   3.584   2.005
    2MMT2    Ob 5219   5.318   3.838   1.981
    2MMT2     H 5220   5.665   3.565   1.818
    2MMT2   Mgo 5221   5.608   3.782   1.675
    2MMT2    Si 5222   5.523   3.075   1.407
    2MMT2    Si 5223   5.522   3.677   1.406
    2MMT2   Omg 5224   5.542   3.048   1.569
    2MMT2   Omg 5225   5.507   3.670   1.569
    2MMT2  Ohmg 5226   5.767   3.773   1.576
    2MMT2    Ob 5227   5.899   3.628   1.345
    2MMT2    Ob 5228   5.552   3.830   1.346
    2MMT2    Ob 5229   5.638   3.577   1.370
    2MMT2     H 5230   5.807   3.850   1.533
    2MMT2   Mgo 5231   5.345   3.333   1.675
    2MMT2    Si 5232   5.786   3.523   1.407
    2MMT2    Si 5233   5.775   3.228   1.406
    2MMT2    Op 5234   5.805   3.496   1.569
    2MMT2    Op 5235   5.760   3.222   1.569
    2MMT2  Ohmg 5236   5.504   3.324   1.576
    2MMT2    Ob 5237   5.636   3.180   1.345
    2MMT2    Ob 5238   5.806   3.382   1.346
    2MMT2    Ob 5239   5.891   3.129   1.370
    2MMT2     H 5240   5.544   3.401   1.533
    2MMT2    Al 5241   6.117   3.185   1.675
    2MMT2    Si 5242   0.000   2.995   1.943
    2MMT2    Si 5243   0.011   3.290   1.944
    2MMT2   Omg 5244   6.173   3.022   1.781
    2MMT2   Omg 5245   0.026   3.296   1.781
    2MMT2    Oh 5246   5.958   3.194   1.774
    2MMT2    Ob 5247   5.826   3.338   2.005
    2MMT2    Ob 5248   6.173   3.136   2.005
    2MMT2    Ob 5249   6.087   3.389   1.981
    2MMT2     H 5250   5.918   3.117   1.818
    2MMT2    Al 5251   5.864   3.633   1.675
    2MMT2    Si 5252   5.939   3.443   1.943
    2MMT2    Si 5253   5.950   3.738   1.944
    2MMT2    Op 5254   5.920   3.470   1.781
    2MMT2   Omg 5255   5.965   3.745   1.781
    2MMT2  Ohmg 5256   0.029   3.642   1.774
    2MMT2    Ob 5257   6.089   3.786   2.005
    2MMT2    Ob 5258   5.919   3.584   2.005
    2MMT2    Ob 5259   5.834   3.838   1.981
    2MMT2     H 5260   6.181   3.565   1.818
    2MMT2   Mgo 5261   6.124   3.782   1.675
    2MMT2    Si 5262   6.039   3.075   1.407
    2MMT2    Si 5263   6.038   3.677   1.406
    2MMT2   Omg 5264   6.058   3.048   1.569
    2MMT2   Omg 5265   6.023   3.670   1.569
    2MMT2  Ohmg 5266   0.091   3.773   1.576
    2MMT2    Ob 5267   0.223   3.628   1.345
    2MMT2    Ob 5268   6.068   3.830   1.346
    2MMT2    Ob 5269   6.154   3.577   1.370
    2MMT2     H 5270   0.131   3.850   1.533
    2MMT2    Al 5271   5.861   3.333   1.675
    2MMT2    Si 5272   0.110   3.523   1.407
    2MMT2    Si 5273   0.099   3.228   1.406
    2MMT2   Omg 5274   0.129   3.496   1.569
    2MMT2   Omg 5275   0.084   3.222   1.569
    2MMT2    Oh 5276   6.020   3.324   1.576
    2MMT2    Ob 5277   6.152   3.180   1.345
    2MMT2    Ob 5278   0.130   3.382   1.346
    2MMT2    Ob 5279   0.215   3.129   1.370
    2MMT2     H 5280   6.060   3.401   1.533
    2MMT2   Mgo 5281   0.451   4.081   1.675
    2MMT2    Si 5282   0.526   3.892   1.943
    2MMT2    Si 5283   0.537   4.186   1.944
    2MMT2   Omg 5284   0.507   3.918   1.781
    2MMT2   Omg 5285   0.552   4.193   1.781
    2MMT2  Ohmg 5286   0.292   4.091   1.774
    2MMT2    Ob 5287   0.160   4.235   2.005
    2MMT2    Ob 5288   0.506   4.033   2.005
    2MMT2    Ob 5289   0.420   4.286   1.981
    2MMT2     H 5290   0.252   4.013   1.818
    2MMT2    Al 5291   0.197   4.530   1.675
    2MMT2    Si 5292   0.273   4.340   1.943
    2MMT2    Si 5293   0.284   4.635   1.944
    2MMT2    Op 5294   0.254   4.367   1.781
    2MMT2    Op 5295   0.299   4.641   1.781
    2MMT2    Oh 5296   0.554   4.539   1.774
    2MMT2    Ob 5297   0.423   4.683   2.005
    2MMT2    Ob 5298   0.253   4.481   2.005
    2MMT2    Ob 5299   0.167   4.734   1.981
    2MMT2     H 5300   0.514   4.462   1.818
    2MMT2    Al 5301   0.458   4.678   1.675
    2MMT2    Si 5302   0.372   3.971   1.407
    2MMT2    Si 5303   0.371   4.573   1.406
    2MMT2   Omg 5304   0.392   3.945   1.569
    2MMT2    Op 5305   0.356   4.567   1.569
    2MMT2    Oh 5306   0.617   4.669   1.576
    2MMT2    Ob 5307   0.748   4.525   1.345
    2MMT2    Ob 5308   0.402   4.727   1.346
    2MMT2    Ob 5309   0.488   4.474   1.370
    2MMT2     H 5310   0.657   4.746   1.533
    2MMT2    Al 5311   0.195   4.230   1.675
    2MMT2    Si 5312   0.635   4.420   1.407
    2MMT2    Si 5313   0.625   4.125   1.406
    2MMT2    Op 5314   0.655   4.393   1.569
    2MMT2   Omg 5315   0.609   4.119   1.569
    2MMT2  Ohmg 5316   0.354   4.221   1.576
    2MMT2    Ob 5317   0.486   4.077   1.345
    2MMT2    Ob 5318   0.655   4.279   1.346
    2MMT2    Ob 5319   0.741   4.025   1.370
    2MMT2     H 5320   0.394   4.298   1.533
    2MMT2    Al 5321   0.967   4.081   1.675
    2MMT2    Si 5322   1.042   3.892   1.943
    2MMT2    Si 5323   1.053   4.186   1.944
    2MMT2    Op 5324   1.023   3.918   1.781
    2MMT2   Omg 5325   1.068   4.193   1.781
    2MMT2    Oh 5326   0.808   4.091   1.774
    2MMT2    Ob 5327   0.676   4.235   2.005
    2MMT2    Ob 5328   1.022   4.033   2.005
    2MMT2    Ob 5329   0.936   4.286   1.981
    2MMT2     H 5330   0.768   4.013   1.818
    2MMT2    Al 5331   0.713   4.530   1.675
    2MMT2    Si 5332   0.789   4.340   1.943
    2MMT2    Si 5333   0.800   4.635   1.944
    2MMT2    Op 5334   0.770   4.367   1.781
    2MMT2   Omg 5335   0.815   4.641   1.781
    2MMT2  Ohmg 5336   1.070   4.539   1.774
    2MMT2    Ob 5337   0.939   4.683   2.005
    2MMT2    Ob 5338   0.769   4.481   2.005
    2MMT2    Ob 5339   0.683   4.734   1.981
    2MMT2     H 5340   1.030   4.462   1.818
    2MMT2   Mgo 5341   0.974   4.678   1.675
    2MMT2    Si 5342   0.888   3.971   1.407
    2MMT2    Si 5343   0.887   4.573   1.406
    2MMT2    Op 5344   0.908   3.945   1.569
    2MMT2   Omg 5345   0.872   4.567   1.569
    2MMT2  Ohmg 5346   1.133   4.669   1.576
    2MMT2    Ob 5347   1.264   4.525   1.345
    2MMT2    Ob 5348   0.918   4.727   1.346
    2MMT2    Ob 5349   1.004   4.474   1.370
    2MMT2     H 5350   1.173   4.746   1.533
    2MMT2    Al 5351   0.711   4.230   1.675
    2MMT2    Si 5352   1.151   4.420   1.407
    2MMT2    Si 5353   1.141   4.125   1.406
    2MMT2   Omg 5354   1.171   4.393   1.569
    2MMT2   Omg 5355   1.125   4.119   1.569
    2MMT2    Oh 5356   0.870   4.221   1.576
    2MMT2    Ob 5357   1.002   4.077   1.345
    2MMT2    Ob 5358   1.171   4.279   1.346
    2MMT2    Ob 5359   1.257   4.025   1.370
    2MMT2     H 5360   0.910   4.298   1.533
    2MMT2    Al 5361   1.483   4.081   1.675
    2MMT2    Si 5362   1.558   3.892   1.943
    2MMT2    Si 5363   1.569   4.186   1.944
    2MMT2   Omg 5364   1.539   3.918   1.781
    2MMT2    Op 5365   1.584   4.193   1.781
    2MMT2  Ohmg 5366   1.324   4.091   1.774
    2MMT2    Ob 5367   1.192   4.235   2.005
    2MMT2    Ob 5368   1.538   4.033   2.005
    2MMT2    Ob 5369   1.452   4.286   1.981
    2MMT2     H 5370   1.284   4.013   1.818
    2MMT2    Al 5371   1.229   4.530   1.675
    2MMT2    Si 5372   1.305   4.340   1.943
    2MMT2    Si 5373   1.316   4.635   1.944
    2MMT2   Omg 5374   1.286   4.367   1.781
    2MMT2    Op 5375   1.331   4.641   1.781
    2MMT2  Ohmg 5376   1.586   4.539   1.774
    2MMT2    Ob 5377   1.455   4.683   2.005
    2MMT2    Ob 5378   1.285   4.481   2.005
    2MMT2    Ob 5379   1.199   4.734   1.981
    2MMT2     H 5380   1.546   4.462   1.818
    2MMT2    Al 5381   1.490   4.678   1.675
    2MMT2    Si 5382   1.404   3.971   1.407
    2MMT2    Si 5383   1.403   4.573   1.406
    2MMT2   Omg 5384   1.424   3.945   1.569
    2MMT2    Op 5385   1.388   4.567   1.569
    2MMT2  Ohmg 5386   1.649   4.669   1.576
    2MMT2    Ob 5387   1.780   4.525   1.345
    2MMT2    Ob 5388   1.434   4.727   1.346
    2MMT2    Ob 5389   1.520   4.474   1.370
    2MMT2     H 5390   1.689   4.746   1.533
    2MMT2   Mgo 5391   1.227   4.230   1.675
    2MMT2    Si 5392   1.667   4.420   1.407
    2MMT2    Si 5393   1.657   4.125   1.406
    2MMT2   Omg 5394   1.687   4.393   1.569
    2MMT2    Op 5395   1.641   4.119   1.569
    2MMT2  Ohmg 5396   1.386   4.221   1.576
    2MMT2    Ob 5397   1.518   4.077   1.345
    2MMT2    Ob 5398   1.687   4.279   1.346
    2MMT2    Ob 5399   1.773   4.025   1.370
    2MMT2     H 5400   1.426   4.298   1.533
    2MMT2    Al 5401   1.999   4.081   1.675
    2MMT2    Si 5402   2.074   3.892   1.943
    2MMT2    Si 5403   2.085   4.186   1.944
    2MMT2   Omg 5404   2.055   3.918   1.781
    2MMT2    Op 5405   2.100   4.193   1.781
    2MMT2    Oh 5406   1.840   4.091   1.774
    2MMT2    Ob 5407   1.708   4.235   2.005
    2MMT2    Ob 5408   2.054   4.033   2.005
    2MMT2    Ob 5409   1.968   4.286   1.981
    2MMT2     H 5410   1.800   4.013   1.818
    2MMT2   Mgo 5411   1.745   4.530   1.675
    2MMT2    Si 5412   1.821   4.340   1.943
    2MMT2    Si 5413   1.832   4.635   1.944
    2MMT2   Omg 5414   1.802   4.367   1.781
    2MMT2   Omg 5415   1.847   4.641   1.781
    2MMT2    Oh 5416   2.102   4.539   1.774
    2MMT2    Ob 5417   1.971   4.683   2.005
    2MMT2    Ob 5418   1.801   4.481   2.005
    2MMT2    Ob 5419   1.715   4.734   1.981
    2MMT2     H 5420   2.062   4.462   1.818
    2MMT2    Al 5421   2.006   4.678   1.675
    2MMT2    Si 5422   1.920   3.971   1.407
    2MMT2    Si 5423   1.919   4.573   1.406
    2MMT2   Omg 5424   1.940   3.945   1.569
    2MMT2   Omg 5425   1.904   4.567   1.569
    2MMT2    Oh 5426   2.165   4.669   1.576
    2MMT2    Ob 5427   2.296   4.525   1.345
    2MMT2    Ob 5428   1.950   4.727   1.346
    2MMT2    Ob 5429   2.036   4.474   1.370
    2MMT2     H 5430   2.205   4.746   1.533
    2MMT2    Al 5431   1.743   4.230   1.675
    2MMT2    Si 5432   2.183   4.420   1.407
    2MMT2    Si 5433   2.173   4.125   1.406
    2MMT2    Op 5434   2.203   4.393   1.569
    2MMT2    Op 5435   2.157   4.119   1.569
    2MMT2    Oh 5436   1.902   4.221   1.576
    2MMT2    Ob 5437   2.034   4.077   1.345
    2MMT2    Ob 5438   2.203   4.279   1.346
    2MMT2    Ob 5439   2.289   4.025   1.370
    2MMT2     H 5440   1.942   4.298   1.533
    2MMT2    Al 5441   2.515   4.081   1.675
    2MMT2    Si 5442   2.590   3.892   1.943
    2MMT2    Si 5443   2.601   4.186   1.944
    2MMT2    Op 5444   2.571   3.918   1.781
    2MMT2    Op 5445   2.616   4.193   1.781
    2MMT2    Oh 5446   2.356   4.091   1.774
    2MMT2    Ob 5447   2.224   4.235   2.005
    2MMT2    Ob 5448   2.570   4.033   2.005
    2MMT2    Ob 5449   2.484   4.286   1.981
    2MMT2     H 5450   2.316   4.013   1.818
    2MMT2    Al 5451   2.261   4.530   1.675
    2MMT2    Si 5452   2.337   4.340   1.943
    2MMT2    Si 5453   2.348   4.635   1.944
    2MMT2    Op 5454   2.318   4.367   1.781
    2MMT2   Omg 5455   2.363   4.641   1.781
    2MMT2  Ohmg 5456   2.618   4.539   1.774
    2MMT2    Ob 5457   2.487   4.683   2.005
    2MMT2    Ob 5458   2.317   4.481   2.005
    2MMT2    Ob 5459   2.231   4.734   1.981
    2MMT2     H 5460   2.578   4.462   1.818
    2MMT2   Mgo 5461   2.522   4.678   1.675
    2MMT2    Si 5462   2.436   3.971   1.407
    2MMT2    Si 5463   2.435   4.573   1.406
    2MMT2    Op 5464   2.456   3.945   1.569
    2MMT2   Omg 5465   2.420   4.567   1.569
    2MMT2  Ohmg 5466   2.681   4.669   1.576
    2MMT2    Ob 5467   2.812   4.525   1.345
    2MMT2    Ob 5468   2.466   4.727   1.346
    2MMT2    Ob 5469   2.552   4.474   1.370
    2MMT2     H 5470   2.721   4.746   1.533
    2MMT2    Al 5471   2.259   4.230   1.675
    2MMT2    Si 5472   2.699   4.420   1.407
    2MMT2    Si 5473   2.689   4.125   1.406
    2MMT2    Op 5474   2.719   4.393   1.569
    2MMT2    Op 5475   2.673   4.119   1.569
    2MMT2    Oh 5476   2.418   4.221   1.576
    2MMT2    Ob 5477   2.550   4.077   1.345
    2MMT2    Ob 5478   2.719   4.279   1.346
    2MMT2    Ob 5479   2.805   4.025   1.370
    2MMT2     H 5480   2.458   4.298   1.533
    2MMT2    Al 5481   3.031   4.081   1.675
    2MMT2    Si 5482   3.106   3.892   1.943
    2MMT2    Si 5483   3.117   4.186   1.944
    2MMT2    Op 5484   3.087   3.918   1.781
    2MMT2    Op 5485   3.132   4.193   1.781
    2MMT2    Oh 5486   2.872   4.091   1.774
    2MMT2    Ob 5487   2.740   4.235   2.005
    2MMT2    Ob 5488   3.086   4.033   2.005
    2MMT2    Ob 5489   3.000   4.286   1.981
    2MMT2     H 5490   2.832   4.013   1.818
    2MMT2    Al 5491   2.777   4.530   1.675
    2MMT2    Si 5492   2.853   4.340   1.943
    2MMT2    Si 5493   2.864   4.635   1.944
    2MMT2    Op 5494   2.834   4.367   1.781
    2MMT2    Op 5495   2.879   4.641   1.781
    2MMT2  Ohmg 5496   3.134   4.539   1.774
    2MMT2    Ob 5497   3.003   4.683   2.005
    2MMT2    Ob 5498   2.833   4.481   2.005
    2MMT2    Ob 5499   2.747   4.734   1.981
    2MMT2     H 5500   3.094   4.462   1.818
    2MMT2    Al 5501   3.038   4.678   1.675
    2MMT2    Si 5502   2.952   3.971   1.407
    2MMT2    Si 5503   2.951   4.573   1.406
    2MMT2    Op 5504   2.972   3.945   1.569
    2MMT2    Op 5505   2.936   4.567   1.569
    2MMT2  Ohmg 5506   3.197   4.669   1.576
    2MMT2    Ob 5507   3.328   4.525   1.345
    2MMT2    Ob 5508   2.982   4.727   1.346
    2MMT2    Ob 5509   3.068   4.474   1.370
    2MMT2     H 5510   3.237   4.746   1.533
    2MMT2    Al 5511   2.775   4.230   1.675
    2MMT2    Si 5512   3.215   4.420   1.407
    2MMT2    Si 5513   3.205   4.125   1.406
    2MMT2   Omg 5514   3.235   4.393   1.569
    2MMT2    Op 5515   3.189   4.119   1.569
    2MMT2    Oh 5516   2.934   4.221   1.576
    2MMT2    Ob 5517   3.066   4.077   1.345
    2MMT2    Ob 5518   3.235   4.279   1.346
    2MMT2    Ob 5519   3.321   4.025   1.370
    2MMT2     H 5520   2.974   4.298   1.533
    2MMT2    Al 5521   3.547   4.081   1.675
    2MMT2    Si 5522   3.622   3.892   1.943
    2MMT2    Si 5523   3.633   4.186   1.944
    2MMT2    Op 5524   3.603   3.918   1.781
    2MMT2    Op 5525   3.648   4.193   1.781
    2MMT2    Oh 5526   3.388   4.091   1.774
    2MMT2    Ob 5527   3.256   4.235   2.005
    2MMT2    Ob 5528   3.602   4.033   2.005
    2MMT2    Ob 5529   3.516   4.286   1.981
    2MMT2     H 5530   3.348   4.013   1.818
    2MMT2   Mgo 5531   3.293   4.530   1.675
    2MMT2    Si 5532   3.369   4.340   1.943
    2MMT2    Si 5533   3.380   4.635   1.944
    2MMT2   Omg 5534   3.350   4.367   1.781
    2MMT2   Omg 5535   3.395   4.641   1.781
    2MMT2    Oh 5536   3.650   4.539   1.774
    2MMT2    Ob 5537   3.519   4.683   2.005
    2MMT2    Ob 5538   3.349   4.481   2.005
    2MMT2    Ob 5539   3.263   4.734   1.981
    2MMT2     H 5540   3.610   4.462   1.818
    2MMT2    Al 5541   3.554   4.678   1.675
    2MMT2    Si 5542   3.468   3.971   1.407
    2MMT2    Si 5543   3.467   4.573   1.406
    2MMT2    Op 5544   3.488   3.945   1.569
    2MMT2   Omg 5545   3.452   4.567   1.569
    2MMT2    Oh 5546   3.713   4.669   1.576
    2MMT2    Ob 5547   3.844   4.525   1.345
    2MMT2    Ob 5548   3.498   4.727   1.346
    2MMT2    Ob 5549   3.584   4.474   1.370
    2MMT2     H 5550   3.753   4.746   1.533
    2MMT2    Al 5551   3.291   4.230   1.675
    2MMT2    Si 5552   3.731   4.420   1.407
    2MMT2    Si 5553   3.721   4.125   1.406
    2MMT2    Op 5554   3.751   4.393   1.569
    2MMT2    Op 5555   3.705   4.119   1.569
    2MMT2    Oh 5556   3.450   4.221   1.576
    2MMT2    Ob 5557   3.582   4.077   1.345
    2MMT2    Ob 5558   3.751   4.279   1.346
    2MMT2    Ob 5559   3.837   4.025   1.370
    2MMT2     H 5560   3.490   4.298   1.533
    2MMT2    Al 5561   4.063   4.081   1.675
    2MMT2    Si 5562   4.138   3.892   1.943
    2MMT2    Si 5563   4.149   4.186   1.944
    2MMT2    Op 5564   4.119   3.918   1.781
    2MMT2    Op 5565   4.164   4.193   1.781
    2MMT2    Oh 5566   3.904   4.091   1.774
    2MMT2    Ob 5567   3.772   4.235   2.005
    2MMT2    Ob 5568   4.118   4.033   2.005
    2MMT2    Ob 5569   4.032   4.286   1.981
    2MMT2     H 5570   3.864   4.013   1.818
    2MMT2    Al 5571   3.809   4.530   1.675
    2MMT2    Si 5572   3.885   4.340   1.943
    2MMT2    Si 5573   3.896   4.635   1.944
    2MMT2    Op 5574   3.866   4.367   1.781
    2MMT2   Omg 5575   3.911   4.641   1.781
    2MMT2  Ohmg 5576   4.166   4.539   1.774
    2MMT2    Ob 5577   4.035   4.683   2.005
    2MMT2    Ob 5578   3.865   4.481   2.005
    2MMT2    Ob 5579   3.779   4.734   1.981
    2MMT2     H 5580   4.126   4.462   1.818
    2MMT2   Mgo 5581   4.070   4.678   1.675
    2MMT2    Si 5582   3.984   3.971   1.407
    2MMT2    Si 5583   3.983   4.573   1.406
    2MMT2    Op 5584   4.004   3.945   1.569
    2MMT2   Omg 5585   3.968   4.567   1.569
    2MMT2  Ohmg 5586   4.229   4.669   1.576
    2MMT2    Ob 5587   4.360   4.525   1.345
    2MMT2    Ob 5588   4.014   4.727   1.346
    2MMT2    Ob 5589   4.100   4.474   1.370
    2MMT2     H 5590   4.269   4.746   1.533
    2MMT2    Al 5591   3.807   4.230   1.675
    2MMT2    Si 5592   4.247   4.420   1.407
    2MMT2    Si 5593   4.237   4.125   1.406
    2MMT2    Op 5594   4.267   4.393   1.569
    2MMT2    Op 5595   4.221   4.119   1.569
    2MMT2    Oh 5596   3.966   4.221   1.576
    2MMT2    Ob 5597   4.098   4.077   1.345
    2MMT2    Ob 5598   4.267   4.279   1.346
    2MMT2    Ob 5599   4.353   4.025   1.370
    2MMT2     H 5600   4.006   4.298   1.533
    2MMT2   Mgo 5601   4.579   4.081   1.675
    2MMT2    Si 5602   4.654   3.892   1.943
    2MMT2    Si 5603   4.665   4.186   1.944
    2MMT2   Omg 5604   4.635   3.918   1.781
    2MMT2   Omg 5605   4.680   4.193   1.781
    2MMT2  Ohmg 5606   4.420   4.091   1.774
    2MMT2    Ob 5607   4.288   4.235   2.005
    2MMT2    Ob 5608   4.634   4.033   2.005
    2MMT2    Ob 5609   4.548   4.286   1.981
    2MMT2     H 5610   4.380   4.013   1.818
    2MMT2    Al 5611   4.325   4.530   1.675
    2MMT2    Si 5612   4.401   4.340   1.943
    2MMT2    Si 5613   4.412   4.635   1.944
    2MMT2    Op 5614   4.382   4.367   1.781
    2MMT2    Op 5615   4.427   4.641   1.781
    2MMT2  Ohmg 5616   4.682   4.539   1.774
    2MMT2    Ob 5617   4.551   4.683   2.005
    2MMT2    Ob 5618   4.381   4.481   2.005
    2MMT2    Ob 5619   4.295   4.734   1.981
    2MMT2     H 5620   4.642   4.462   1.818
    2MMT2    Al 5621   4.586   4.678   1.675
    2MMT2    Si 5622   4.500   3.971   1.407
    2MMT2    Si 5623   4.499   4.573   1.406
    2MMT2   Omg 5624   4.520   3.945   1.569
    2MMT2    Op 5625   4.484   4.567   1.569
    2MMT2  Ohmg 5626   4.745   4.669   1.576
    2MMT2    Ob 5627   4.876   4.525   1.345
    2MMT2    Ob 5628   4.530   4.727   1.346
    2MMT2    Ob 5629   4.616   4.474   1.370
    2MMT2     H 5630   4.785   4.746   1.533
    2MMT2    Al 5631   4.323   4.230   1.675
    2MMT2    Si 5632   4.763   4.420   1.407
    2MMT2    Si 5633   4.753   4.125   1.406
    2MMT2   Omg 5634   4.783   4.393   1.569
    2MMT2   Omg 5635   4.737   4.119   1.569
    2MMT2  Ohmg 5636   4.482   4.221   1.576
    2MMT2    Ob 5637   4.614   4.077   1.345
    2MMT2    Ob 5638   4.783   4.279   1.346
    2MMT2    Ob 5639   4.869   4.025   1.370
    2MMT2     H 5640   4.522   4.298   1.533
    2MMT2    Al 5641   5.095   4.081   1.675
    2MMT2    Si 5642   5.170   3.892   1.943
    2MMT2    Si 5643   5.181   4.186   1.944
    2MMT2    Op 5644   5.151   3.918   1.781
    2MMT2    Op 5645   5.196   4.193   1.781
    2MMT2    Oh 5646   4.936   4.091   1.774
    2MMT2    Ob 5647   4.804   4.235   2.005
    2MMT2    Ob 5648   5.150   4.033   2.005
    2MMT2    Ob 5649   5.064   4.286   1.981
    2MMT2     H 5650   4.896   4.013   1.818
    2MMT2   Mgo 5651   4.841   4.530   1.675
    2MMT2    Si 5652   4.917   4.340   1.943
    2MMT2    Si 5653   4.928   4.635   1.944
    2MMT2   Omg 5654   4.898   4.367   1.781
    2MMT2   Omg 5655   4.943   4.641   1.781
    2MMT2  Ohmg 5656   5.198   4.539   1.774
    2MMT2    Ob 5657   5.067   4.683   2.005
    2MMT2    Ob 5658   4.897   4.481   2.005
    2MMT2    Ob 5659   4.811   4.734   1.981
    2MMT2     H 5660   5.158   4.462   1.818
    2MMT2    Al 5661   5.102   4.678   1.675
    2MMT2    Si 5662   5.016   3.971   1.407
    2MMT2    Si 5663   5.015   4.573   1.406
    2MMT2    Op 5664   5.036   3.945   1.569
    2MMT2   Omg 5665   5.000   4.567   1.569
    2MMT2  Ohmg 5666   5.261   4.669   1.576
    2MMT2    Ob 5667   5.392   4.525   1.345
    2MMT2    Ob 5668   5.046   4.727   1.346
    2MMT2    Ob 5669   5.132   4.474   1.370
    2MMT2     H 5670   5.301   4.746   1.533
    2MMT2    Al 5671   4.839   4.230   1.675
    2MMT2    Si 5672   5.279   4.420   1.407
    2MMT2    Si 5673   5.269   4.125   1.406
    2MMT2   Omg 5674   5.299   4.393   1.569
    2MMT2    Op 5675   5.253   4.119   1.569
    2MMT2    Oh 5676   4.998   4.221   1.576
    2MMT2    Ob 5677   5.130   4.077   1.345
    2MMT2    Ob 5678   5.299   4.279   1.346
    2MMT2    Ob 5679   5.385   4.025   1.370
    2MMT2     H 5680   5.038   4.298   1.533
    2MMT2    Al 5681   5.611   4.081   1.675
    2MMT2    Si 5682   5.686   3.892   1.943
    2MMT2    Si 5683   5.697   4.186   1.944
    2MMT2   Omg 5684   5.667   3.918   1.781
    2MMT2   Omg 5685   5.712   4.193   1.781
    2MMT2    Oh 5686   5.452   4.091   1.774
    2MMT2    Ob 5687   5.320   4.235   2.005
    2MMT2    Ob 5688   5.666   4.033   2.005
    2MMT2    Ob 5689   5.580   4.286   1.981
    2MMT2     H 5690   5.412   4.013   1.818
    2MMT2   Mgo 5691   5.357   4.530   1.675
    2MMT2    Si 5692   5.433   4.340   1.943
    2MMT2    Si 5693   5.444   4.635   1.944
    2MMT2   Omg 5694   5.414   4.367   1.781
    2MMT2   Omg 5695   5.459   4.641   1.781
    2MMT2    Oh 5696   5.714   4.539   1.774
    2MMT2    Ob 5697   5.583   4.683   2.005
    2MMT2    Ob 5698   5.413   4.481   2.005
    2MMT2    Ob 5699   5.327   4.734   1.981
    2MMT2     H 5700   5.674   4.462   1.818
    2MMT2    Al 5701   5.618   4.678   1.675
    2MMT2    Si 5702   5.532   3.971   1.407
    2MMT2    Si 5703   5.531   4.573   1.406
    2MMT2   Omg 5704   5.552   3.945   1.569
    2MMT2   Omg 5705   5.516   4.567   1.569
    2MMT2    Oh 5706   5.777   4.669   1.576
    2MMT2    Ob 5707   5.908   4.525   1.345
    2MMT2    Ob 5708   5.562   4.727   1.346
    2MMT2    Ob 5709   5.648   4.474   1.370
    2MMT2     H 5710   5.817   4.746   1.533
    2MMT2    Al 5711   5.355   4.230   1.675
    2MMT2    Si 5712   5.795   4.420   1.407
    2MMT2    Si 5713   5.785   4.125   1.406
    2MMT2   Omg 5714   5.815   4.393   1.569
    2MMT2   Omg 5715   5.769   4.119   1.569
    2MMT2    Oh 5716   5.514   4.221   1.576
    2MMT2    Ob 5717   5.646   4.077   1.345
    2MMT2    Ob 5718   5.815   4.279   1.346
    2MMT2    Ob 5719   5.901   4.025   1.370
    2MMT2     H 5720   5.554   4.298   1.533
    2MMT2    Al 5721   6.127   4.081   1.675
    2MMT2    Si 5722   0.010   3.892   1.943
    2MMT2    Si 5723   0.021   4.186   1.944
    2MMT2   Omg 5724   6.183   3.918   1.781
    2MMT2    Op 5725   0.036   4.193   1.781
    2MMT2  Ohmg 5726   5.968   4.091   1.774
    2MMT2    Ob 5727   5.836   4.235   2.005
    2MMT2    Ob 5728   6.182   4.033   2.005
    2MMT2    Ob 5729   6.096   4.286   1.981
    2MMT2     H 5730   5.928   4.013   1.818
    2MMT2    Al 5731   5.873   4.530   1.675
    2MMT2    Si 5732   5.949   4.340   1.943
    2MMT2    Si 5733   5.960   4.635   1.944
    2MMT2   Omg 5734   5.930   4.367   1.781
    2MMT2    Op 5735   5.975   4.641   1.781
    2MMT2    Oh 5736   0.038   4.539   1.774
    2MMT2    Ob 5737   6.099   4.683   2.005
    2MMT2    Ob 5738   5.929   4.481   2.005
    2MMT2    Ob 5739   5.843   4.734   1.981
    2MMT2     H 5740   6.190   4.462   1.818
    2MMT2    Al 5741   6.134   4.678   1.675
    2MMT2    Si 5742   6.048   3.971   1.407
    2MMT2    Si 5743   6.047   4.573   1.406
    2MMT2   Omg 5744   6.068   3.945   1.569
    2MMT2    Op 5745   6.032   4.567   1.569
    2MMT2    Oh 5746   0.101   4.669   1.576
    2MMT2    Ob 5747   0.232   4.525   1.345
    2MMT2    Ob 5748   6.078   4.727   1.346
    2MMT2    Ob 5749   6.164   4.474   1.370
    2MMT2     H 5750   0.141   4.746   1.533
    2MMT2   Mgo 5751   5.871   4.230   1.675
    2MMT2    Si 5752   0.119   4.420   1.407
    2MMT2    Si 5753   0.109   4.125   1.406
    2MMT2    Op 5754   0.139   4.393   1.569
    2MMT2    Op 5755   0.093   4.119   1.569
    2MMT2  Ohmg 5756   6.030   4.221   1.576
    2MMT2    Ob 5757   6.162   4.077   1.345
    2MMT2    Ob 5758   0.139   4.279   1.346
    2MMT2    Ob 5759   0.225   4.025   1.370
    2MMT2     H 5760   6.070   4.298   1.533
    2MMT2   Mgo 5761   0.460   4.978   1.675
    2MMT2    Si 5762   0.536   4.788   1.943
    2MMT2    Si 5763   0.546   5.083   1.944
    2MMT2   Omg 5764   0.517   4.815   1.781
    2MMT2   Omg 5765   0.562   5.089   1.781
    2MMT2  Ohmg 5766   0.301   4.987   1.774
    2MMT2    Ob 5767   0.170   5.131   2.005
    2MMT2    Ob 5768   0.516   4.929   2.005
    2MMT2    Ob 5769   0.430   5.183   1.981
    2MMT2     H 5770   0.261   4.910   1.818
    2MMT2    Al 5771   0.207   5.426   1.675
    2MMT2    Si 5772   0.283   5.237   1.943
    2MMT2    Si 5773   0.293   5.531   1.944
    2MMT2    Op 5774   0.263   5.263   1.781
    2MMT2    Op 5775   0.309   5.538   1.781
    2MMT2  Ohmg 5776   0.564   5.435   1.774
    2MMT2    Ob 5777   0.432   5.580   2.005
    2MMT2    Ob 5778   0.263   5.377   2.005
    2MMT2    Ob 5779   0.177   5.631   1.981
    2MMT2     H 5780   0.524   5.358   1.818
    2MMT2    Al 5781   0.467   5.575   1.675
    2MMT2    Si 5782   0.382   4.868   1.407
    2MMT2    Si 5783   0.381   5.470   1.406
    2MMT2   Omg 5784   0.401   4.841   1.569
    2MMT2    Op 5785   0.366   5.463   1.569
    2MMT2  Ohmg 5786   0.626   5.566   1.576
    2MMT2    Ob 5787   0.758   5.422   1.345
    2MMT2    Ob 5788   0.412   5.624   1.346
    2MMT2    Ob 5789   0.497   5.370   1.370
    2MMT2     H 5790   0.666   5.643   1.533
    2MMT2    Al 5791   0.204   5.127   1.675
    2MMT2    Si 5792   0.645   5.316   1.407
    2MMT2    Si 5793   0.634   5.021   1.406
    2MMT2   Omg 5794   0.664   5.290   1.569
    2MMT2   Omg 5795   0.619   5.015   1.569
    2MMT2  Ohmg 5796   0.363   5.117   1.576
    2MMT2    Ob 5797   0.495   4.973   1.345
    2MMT2    Ob 5798   0.665   5.175   1.346
    2MMT2    Ob 5799   0.751   4.922   1.370
    2MMT2     H 5800   0.403   5.195   1.533
    2MMT2    Al 5801   0.976   4.978   1.675
    2MMT2    Si 5802   1.052   4.788   1.943
    2MMT2    Si 5803   1.062   5.083   1.944
    2MMT2   Omg 5804   1.033   4.815   1.781
    2MMT2    Op 5805   1.078   5.089   1.781
    2MMT2    Oh 5806   0.817   4.987   1.774
    2MMT2    Ob 5807   0.686   5.131   2.005
    2MMT2    Ob 5808   1.032   4.929   2.005
    2MMT2    Ob 5809   0.946   5.183   1.981
    2MMT2     H 5810   0.777   4.910   1.818
    2MMT2   Mgo 5811   0.723   5.426   1.675
    2MMT2    Si 5812   0.799   5.237   1.943
    2MMT2    Si 5813   0.809   5.531   1.944
    2MMT2   Omg 5814   0.779   5.263   1.781
    2MMT2   Omg 5815   0.825   5.538   1.781
    2MMT2    Oh 5816   1.080   5.435   1.774
    2MMT2    Ob 5817   0.948   5.580   2.005
    2MMT2    Ob 5818   0.779   5.377   2.005
    2MMT2    Ob 5819   0.693   5.631   1.981
    2MMT2     H 5820   1.040   5.358   1.818
    2MMT2    Al 5821   0.983   5.575   1.675
    2MMT2    Si 5822   0.898   4.868   1.407
    2MMT2    Si 5823   0.897   5.470   1.406
    2MMT2   Omg 5824   0.917   4.841   1.569
    2MMT2   Omg 5825   0.882   5.463   1.569
    2MMT2    Oh 5826   1.142   5.566   1.576
    2MMT2    Ob 5827   1.274   5.422   1.345
    2MMT2    Ob 5828   0.928   5.624   1.346
    2MMT2    Ob 5829   1.013   5.370   1.370
    2MMT2     H 5830   1.182   5.643   1.533
    2MMT2    Al 5831   0.720   5.127   1.675
    2MMT2    Si 5832   1.161   5.316   1.407
    2MMT2    Si 5833   1.150   5.021   1.406
    2MMT2    Op 5834   1.180   5.290   1.569
    2MMT2    Op 5835   1.135   5.015   1.569
    2MMT2    Oh 5836   0.879   5.117   1.576
    2MMT2    Ob 5837   1.011   4.973   1.345
    2MMT2    Ob 5838   1.181   5.175   1.346
    2MMT2    Ob 5839   1.267   4.922   1.370
    2MMT2     H 5840   0.919   5.195   1.533
    2MMT2    Al 5841   1.492   4.978   1.675
    2MMT2    Si 5842   1.568   4.788   1.943
    2MMT2    Si 5843   1.578   5.083   1.944
    2MMT2    Op 5844   1.549   4.815   1.781
    2MMT2   Omg 5845   1.594   5.089   1.781
    2MMT2    Oh 5846   1.333   4.987   1.774
    2MMT2    Ob 5847   1.202   5.131   2.005
    2MMT2    Ob 5848   1.548   4.929   2.005
    2MMT2    Ob 5849   1.462   5.183   1.981
    2MMT2     H 5850   1.293   4.910   1.818
    2MMT2    Al 5851   1.239   5.426   1.675
    2MMT2    Si 5852   1.315   5.237   1.943
    2MMT2    Si 5853   1.325   5.531   1.944
    2MMT2    Op 5854   1.295   5.263   1.781
    2MMT2   Omg 5855   1.341   5.538   1.781
    2MMT2  Ohmg 5856   1.596   5.435   1.774
    2MMT2    Ob 5857   1.464   5.580   2.005
    2MMT2    Ob 5858   1.295   5.377   2.005
    2MMT2    Ob 5859   1.209   5.631   1.981
    2MMT2     H 5860   1.556   5.358   1.818
    2MMT2   Mgo 5861   1.499   5.575   1.675
    2MMT2    Si 5862   1.414   4.868   1.407
    2MMT2    Si 5863   1.413   5.470   1.406
    2MMT2    Op 5864   1.433   4.841   1.569
    2MMT2   Omg 5865   1.398   5.463   1.569
    2MMT2  Ohmg 5866   1.658   5.566   1.576
    2MMT2    Ob 5867   1.790   5.422   1.345
    2MMT2    Ob 5868   1.444   5.624   1.346
    2MMT2    Ob 5869   1.529   5.370   1.370
    2MMT2     H 5870   1.698   5.643   1.533
    2MMT2    Al 5871   1.236   5.127   1.675
    2MMT2    Si 5872   1.677   5.316   1.407
    2MMT2    Si 5873   1.666   5.021   1.406
    2MMT2   Omg 5874   1.696   5.290   1.569
    2MMT2   Omg 5875   1.651   5.015   1.569
    2MMT2    Oh 5876   1.395   5.117   1.576
    2MMT2    Ob 5877   1.527   4.973   1.345
    2MMT2    Ob 5878   1.697   5.175   1.346
    2MMT2    Ob 5879   1.783   4.922   1.370
    2MMT2     H 5880   1.435   5.195   1.533
    2MMT2    Al 5881   2.008   4.978   1.675
    2MMT2    Si 5882   2.084   4.788   1.943
    2MMT2    Si 5883   2.094   5.083   1.944
    2MMT2    Op 5884   2.065   4.815   1.781
    2MMT2    Op 5885   2.110   5.089   1.781
    2MMT2  Ohmg 5886   1.849   4.987   1.774
    2MMT2    Ob 5887   1.718   5.131   2.005
    2MMT2    Ob 5888   2.064   4.929   2.005
    2MMT2    Ob 5889   1.978   5.183   1.981
    2MMT2     H 5890   1.809   4.910   1.818
    2MMT2    Al 5891   1.755   5.426   1.675
    2MMT2    Si 5892   1.831   5.237   1.943
    2MMT2    Si 5893   1.841   5.531   1.944
    2MMT2   Omg 5894   1.811   5.263   1.781
    2MMT2    Op 5895   1.857   5.538   1.781
    2MMT2  Ohmg 5896   2.112   5.435   1.774
    2MMT2    Ob 5897   1.980   5.580   2.005
    2MMT2    Ob 5898   1.811   5.377   2.005
    2MMT2    Ob 5899   1.725   5.631   1.981
    2MMT2     H 5900   2.072   5.358   1.818
    2MMT2    Al 5901   2.015   5.575   1.675
    2MMT2    Si 5902   1.930   4.868   1.407
    2MMT2    Si 5903   1.929   5.470   1.406
    2MMT2    Op 5904   1.949   4.841   1.569
    2MMT2    Op 5905   1.914   5.463   1.569
    2MMT2  Ohmg 5906   2.174   5.566   1.576
    2MMT2    Ob 5907   2.306   5.422   1.345
    2MMT2    Ob 5908   1.960   5.624   1.346
    2MMT2    Ob 5909   2.045   5.370   1.370
    2MMT2     H 5910   2.214   5.643   1.533
    2MMT2   Mgo 5911   1.752   5.127   1.675
    2MMT2    Si 5912   2.193   5.316   1.407
    2MMT2    Si 5913   2.182   5.021   1.406
    2MMT2   Omg 5914   2.212   5.290   1.569
    2MMT2    Op 5915   2.167   5.015   1.569
    2MMT2  Ohmg 5916   1.911   5.117   1.576
    2MMT2    Ob 5917   2.043   4.973   1.345
    2MMT2    Ob 5918   2.213   5.175   1.346
    2MMT2    Ob 5919   2.299   4.922   1.370
    2MMT2     H 5920   1.951   5.195   1.533
    2MMT2    Al 5921   2.524   4.978   1.675
    2MMT2    Si 5922   2.600   4.788   1.943
    2MMT2    Si 5923   2.610   5.083   1.944
    2MMT2   Omg 5924   2.581   4.815   1.781
    2MMT2    Op 5925   2.626   5.089   1.781
    2MMT2    Oh 5926   2.365   4.987   1.774
    2MMT2    Ob 5927   2.234   5.131   2.005
    2MMT2    Ob 5928   2.580   4.929   2.005
    2MMT2    Ob 5929   2.494   5.183   1.981
    2MMT2     H 5930   2.325   4.910   1.818
    2MMT2   Mgo 5931   2.271   5.426   1.675
    2MMT2    Si 5932   2.347   5.237   1.943
    2MMT2    Si 5933   2.357   5.531   1.944
    2MMT2   Omg 5934   2.327   5.263   1.781
    2MMT2   Omg 5935   2.373   5.538   1.781
    2MMT2    Oh 5936   2.628   5.435   1.774
    2MMT2    Ob 5937   2.496   5.580   2.005
    2MMT2    Ob 5938   2.327   5.377   2.005
    2MMT2    Ob 5939   2.241   5.631   1.981
    2MMT2     H 5940   2.588   5.358   1.818
    2MMT2    Al 5941   2.531   5.575   1.675
    2MMT2    Si 5942   2.446   4.868   1.407
    2MMT2    Si 5943   2.445   5.470   1.406
    2MMT2   Omg 5944   2.465   4.841   1.569
    2MMT2   Omg 5945   2.430   5.463   1.569
    2MMT2    Oh 5946   2.690   5.566   1.576
    2MMT2    Ob 5947   2.822   5.422   1.345
    2MMT2    Ob 5948   2.476   5.624   1.346
    2MMT2    Ob 5949   2.561   5.370   1.370
    2MMT2     H 5950   2.730   5.643   1.533
    2MMT2    Al 5951   2.268   5.127   1.675
    2MMT2    Si 5952   2.709   5.316   1.407
    2MMT2    Si 5953   2.698   5.021   1.406
    2MMT2    Op 5954   2.728   5.290   1.569
    2MMT2    Op 5955   2.683   5.015   1.569
    2MMT2    Oh 5956   2.427   5.117   1.576
    2MMT2    Ob 5957   2.559   4.973   1.345
    2MMT2    Ob 5958   2.729   5.175   1.346
    2MMT2    Ob 5959   2.815   4.922   1.370
    2MMT2     H 5960   2.467   5.195   1.533
    2MMT2    Al 5961   3.040   4.978   1.675
    2MMT2    Si 5962   3.116   4.788   1.943
    2MMT2    Si 5963   3.126   5.083   1.944
    2MMT2    Op 5964   3.097   4.815   1.781
    2MMT2   Omg 5965   3.142   5.089   1.781
    2MMT2    Oh 5966   2.881   4.987   1.774
    2MMT2    Ob 5967   2.750   5.131   2.005
    2MMT2    Ob 5968   3.096   4.929   2.005
    2MMT2    Ob 5969   3.010   5.183   1.981
    2MMT2     H 5970   2.841   4.910   1.818
    2MMT2    Al 5971   2.787   5.426   1.675
    2MMT2    Si 5972   2.863   5.237   1.943
    2MMT2    Si 5973   2.873   5.531   1.944
    2MMT2    Op 5974   2.843   5.263   1.781
    2MMT2    Op 5975   2.889   5.538   1.781
    2MMT2    Oh 5976   3.144   5.435   1.774
    2MMT2    Ob 5977   3.012   5.580   2.005
    2MMT2    Ob 5978   2.843   5.377   2.005
    2MMT2    Ob 5979   2.757   5.631   1.981
    2MMT2     H 5980   3.104   5.358   1.818
    2MMT2    Al 5981   3.047   5.575   1.675
    2MMT2    Si 5982   2.962   4.868   1.407
    2MMT2    Si 5983   2.961   5.470   1.406
    2MMT2    Op 5984   2.981   4.841   1.569
    2MMT2    Op 5985   2.946   5.463   1.569
    2MMT2    Oh 5986   3.206   5.566   1.576
    2MMT2    Ob 5987   3.338   5.422   1.345
    2MMT2    Ob 5988   2.992   5.624   1.346
    2MMT2    Ob 5989   3.077   5.370   1.370
    2MMT2     H 5990   3.246   5.643   1.533
    2MMT2    Al 5991   2.784   5.127   1.675
    2MMT2    Si 5992   3.225   5.316   1.407
    2MMT2    Si 5993   3.214   5.021   1.406
    2MMT2   Omg 5994   3.244   5.290   1.569
    2MMT2   Omg 5995   3.199   5.015   1.569
    2MMT2    Oh 5996   2.943   5.117   1.576
    2MMT2    Ob 5997   3.075   4.973   1.345
    2MMT2    Ob 5998   3.245   5.175   1.346
    2MMT2    Ob 5999   3.331   4.922   1.370
    2MMT2     H 6000   2.983   5.195   1.533
    2MMT2    Al 6001   3.556   4.978   1.675
    2MMT2    Si 6002   3.632   4.788   1.943
    2MMT2    Si 6003   3.642   5.083   1.944
    2MMT2    Op 6004   3.613   4.815   1.781
    2MMT2   Omg 6005   3.658   5.089   1.781
    2MMT2  Ohmg 6006   3.397   4.987   1.774
    2MMT2    Ob 6007   3.266   5.131   2.005
    2MMT2    Ob 6008   3.612   4.929   2.005
    2MMT2    Ob 6009   3.526   5.183   1.981
    2MMT2     H 6010   3.357   4.910   1.818
    2MMT2    Al 6011   3.303   5.426   1.675
    2MMT2    Si 6012   3.379   5.237   1.943
    2MMT2    Si 6013   3.389   5.531   1.944
    2MMT2   Omg 6014   3.359   5.263   1.781
    2MMT2    Op 6015   3.405   5.538   1.781
    2MMT2    Oh 6016   3.660   5.435   1.774
    2MMT2    Ob 6017   3.528   5.580   2.005
    2MMT2    Ob 6018   3.359   5.377   2.005
    2MMT2    Ob 6019   3.273   5.631   1.981
    2MMT2     H 6020   3.620   5.358   1.818
    2MMT2    Al 6021   3.563   5.575   1.675
    2MMT2    Si 6022   3.478   4.868   1.407
    2MMT2    Si 6023   3.477   5.470   1.406
    2MMT2    Op 6024   3.497   4.841   1.569
    2MMT2    Op 6025   3.462   5.463   1.569
    2MMT2    Oh 6026   3.722   5.566   1.576
    2MMT2    Ob 6027   3.854   5.422   1.345
    2MMT2    Ob 6028   3.508   5.624   1.346
    2MMT2    Ob 6029   3.593   5.370   1.370
    2MMT2     H 6030   3.762   5.643   1.533
    2MMT2   Mgo 6031   3.300   5.127   1.675
    2MMT2    Si 6032   3.741   5.316   1.407
    2MMT2    Si 6033   3.730   5.021   1.406
    2MMT2   Omg 6034   3.760   5.290   1.569
    2MMT2   Omg 6035   3.715   5.015   1.569
    2MMT2  Ohmg 6036   3.459   5.117   1.576
    2MMT2    Ob 6037   3.591   4.973   1.345
    2MMT2    Ob 6038   3.761   5.175   1.346
    2MMT2    Ob 6039   3.847   4.922   1.370
    2MMT2     H 6040   3.499   5.195   1.533
    2MMT2    Al 6041   4.072   4.978   1.675
    2MMT2    Si 6042   4.148   4.788   1.943
    2MMT2    Si 6043   4.158   5.083   1.944
    2MMT2   Omg 6044   4.129   4.815   1.781
    2MMT2   Omg 6045   4.174   5.089   1.781
    2MMT2  Ohmg 6046   3.913   4.987   1.774
    2MMT2    Ob 6047   3.782   5.131   2.005
    2MMT2    Ob 6048   4.128   4.929   2.005
    2MMT2    Ob 6049   4.042   5.183   1.981
    2MMT2     H 6050   3.873   4.910   1.818
    2MMT2    Al 6051   3.819   5.426   1.675
    2MMT2    Si 6052   3.895   5.237   1.943
    2MMT2    Si 6053   3.905   5.531   1.944
    2MMT2   Omg 6054   3.875   5.263   1.781
    2MMT2    Op 6055   3.921   5.538   1.781
    2MMT2    Oh 6056   4.176   5.435   1.774
    2MMT2    Ob 6057   4.044   5.580   2.005
    2MMT2    Ob 6058   3.875   5.377   2.005
    2MMT2    Ob 6059   3.789   5.631   1.981
    2MMT2     H 6060   4.136   5.358   1.818
    2MMT2    Al 6061   4.079   5.575   1.675
    2MMT2    Si 6062   3.994   4.868   1.407
    2MMT2    Si 6063   3.993   5.470   1.406
    2MMT2   Omg 6064   4.013   4.841   1.569
    2MMT2    Op 6065   3.978   5.463   1.569
    2MMT2    Oh 6066   4.238   5.566   1.576
    2MMT2    Ob 6067   4.370   5.422   1.345
    2MMT2    Ob 6068   4.024   5.624   1.346
    2MMT2    Ob 6069   4.109   5.370   1.370
    2MMT2     H 6070   4.278   5.643   1.533
    2MMT2   Mgo 6071   3.816   5.127   1.675
    2MMT2    Si 6072   4.257   5.316   1.407
    2MMT2    Si 6073   4.246   5.021   1.406
    2MMT2   Omg 6074   4.276   5.290   1.569
    2MMT2   Omg 6075   4.231   5.015   1.569
    2MMT2  Ohmg 6076   3.975   5.117   1.576
    2MMT2    Ob 6077   4.107   4.973   1.345
    2MMT2    Ob 6078   4.277   5.175   1.346
    2MMT2    Ob 6079   4.363   4.922   1.370
    2MMT2     H 6080   4.015   5.195   1.533
    2MMT2    Al 6081   4.588   4.978   1.675
    2MMT2    Si 6082   4.664   4.788   1.943
    2MMT2    Si 6083   4.674   5.083   1.944
    2MMT2    Op 6084   4.645   4.815   1.781
    2MMT2    Op 6085   4.690   5.089   1.781
    2MMT2  Ohmg 6086   4.429   4.987   1.774
    2MMT2    Ob 6087   4.298   5.131   2.005
    2MMT2    Ob 6088   4.644   4.929   2.005
    2MMT2    Ob 6089   4.558   5.183   1.981
    2MMT2     H 6090   4.389   4.910   1.818
    2MMT2    Al 6091   4.335   5.426   1.675
    2MMT2    Si 6092   4.411   5.237   1.943
    2MMT2    Si 6093   4.421   5.531   1.944
    2MMT2   Omg 6094   4.391   5.263   1.781
    2MMT2   Omg 6095   4.437   5.538   1.781
    2MMT2  Ohmg 6096   4.692   5.435   1.774
    2MMT2    Ob 6097   4.560   5.580   2.005
    2MMT2    Ob 6098   4.391   5.377   2.005
    2MMT2    Ob 6099   4.305   5.631   1.981
    2MMT2     H 6100   4.652   5.358   1.818
    2MMT2   Mgo 6101   4.595   5.575   1.675
    2MMT2    Si 6102   4.510   4.868   1.407
    2MMT2    Si 6103   4.509   5.470   1.406
    2MMT2    Op 6104   4.529   4.841   1.569
    2MMT2   Omg 6105   4.494   5.463   1.569
    2MMT2  Ohmg 6106   4.754   5.566   1.576
    2MMT2    Ob 6107   4.886   5.422   1.345
    2MMT2    Ob 6108   4.540   5.624   1.346
    2MMT2    Ob 6109   4.625   5.370   1.370
    2MMT2     H 6110   4.794   5.643   1.533
    2MMT2   Mgo 6111   4.332   5.127   1.675
    2MMT2    Si 6112   4.773   5.316   1.407
    2MMT2    Si 6113   4.762   5.021   1.406
    2MMT2    Op 6114   4.792   5.290   1.569
    2MMT2    Op 6115   4.747   5.015   1.569
    2MMT2  Ohmg 6116   4.491   5.117   1.576
    2MMT2    Ob 6117   4.623   4.973   1.345
    2MMT2    Ob 6118   4.793   5.175   1.346
    2MMT2    Ob 6119   4.879   4.922   1.370
    2MMT2     H 6120   4.531   5.195   1.533
    2MMT2    Al 6121   5.104   4.978   1.675
    2MMT2    Si 6122   5.180   4.788   1.943
    2MMT2    Si 6123   5.190   5.083   1.944
    2MMT2    Op 6124   5.161   4.815   1.781
    2MMT2    Op 6125   5.206   5.089   1.781
    2MMT2    Oh 6126   4.945   4.987   1.774
    2MMT2    Ob 6127   4.814   5.131   2.005
    2MMT2    Ob 6128   5.160   4.929   2.005
    2MMT2    Ob 6129   5.074   5.183   1.981
    2MMT2     H 6130   4.905   4.910   1.818
    2MMT2    Al 6131   4.851   5.426   1.675
    2MMT2    Si 6132   4.927   5.237   1.943
    2MMT2    Si 6133   4.937   5.531   1.944
    2MMT2    Op 6134   4.907   5.263   1.781
    2MMT2    Op 6135   4.953   5.538   1.781
    2MMT2  Ohmg 6136   5.208   5.435   1.774
    2MMT2    Ob 6137   5.076   5.580   2.005
    2MMT2    Ob 6138   4.907   5.377   2.005
    2MMT2    Ob 6139   4.821   5.631   1.981
    2MMT2     H 6140   5.168   5.358   1.818
    2MMT2    Al 6141   5.111   5.575   1.675
    2MMT2    Si 6142   5.026   4.868   1.407
    2MMT2    Si 6143   5.025   5.470   1.406
    2MMT2    Op 6144   5.045   4.841   1.569
    2MMT2    Op 6145   5.010   5.463   1.569
    2MMT2  Ohmg 6146   5.270   5.566   1.576
    2MMT2    Ob 6147   5.402   5.422   1.345
    2MMT2    Ob 6148   5.056   5.624   1.346
    2MMT2    Ob 6149   5.141   5.370   1.370
    2MMT2     H 6150   5.310   5.643   1.533
    2MMT2    Al 6151   4.848   5.127   1.675
    2MMT2    Si 6152   5.289   5.316   1.407
    2MMT2    Si 6153   5.278   5.021   1.406
    2MMT2   Omg 6154   5.308   5.290   1.569
    2MMT2    Op 6155   5.263   5.015   1.569
    2MMT2    Oh 6156   5.007   5.117   1.576
    2MMT2    Ob 6157   5.139   4.973   1.345
    2MMT2    Ob 6158   5.309   5.175   1.346
    2MMT2    Ob 6159   5.395   4.922   1.370
    2MMT2     H 6160   5.047   5.195   1.533
    2MMT2   Mgo 6161   5.620   4.978   1.675
    2MMT2    Si 6162   5.696   4.788   1.943
    2MMT2    Si 6163   5.706   5.083   1.944
    2MMT2   Omg 6164   5.677   4.815   1.781
    2MMT2   Omg 6165   5.722   5.089   1.781
    2MMT2  Ohmg 6166   5.461   4.987   1.774
    2MMT2    Ob 6167   5.330   5.131   2.005
    2MMT2    Ob 6168   5.676   4.929   2.005
    2MMT2    Ob 6169   5.590   5.183   1.981
    2MMT2     H 6170   5.421   4.910   1.818
    2MMT2   Mgo 6171   5.367   5.426   1.675
    2MMT2    Si 6172   5.443   5.237   1.943
    2MMT2    Si 6173   5.453   5.531   1.944
    2MMT2   Omg 6174   5.423   5.263   1.781
    2MMT2   Omg 6175   5.469   5.538   1.781
    2MMT2  Ohmg 6176   5.724   5.435   1.774
    2MMT2    Ob 6177   5.592   5.580   2.005
    2MMT2    Ob 6178   5.423   5.377   2.005
    2MMT2    Ob 6179   5.337   5.631   1.981
    2MMT2     H 6180   5.684   5.358   1.818
    2MMT2    Al 6181   5.627   5.575   1.675
    2MMT2    Si 6182   5.542   4.868   1.407
    2MMT2    Si 6183   5.541   5.470   1.406
    2MMT2   Omg 6184   5.561   4.841   1.569
    2MMT2   Omg 6185   5.526   5.463   1.569
    2MMT2  Ohmg 6186   5.786   5.566   1.576
    2MMT2    Ob 6187   5.918   5.422   1.345
    2MMT2    Ob 6188   5.572   5.624   1.346
    2MMT2    Ob 6189   5.657   5.370   1.370
    2MMT2     H 6190   5.826   5.643   1.533
    2MMT2    Al 6191   5.364   5.127   1.675
    2MMT2    Si 6192   5.805   5.316   1.407
    2MMT2    Si 6193   5.794   5.021   1.406
    2MMT2   Omg 6194   5.824   5.290   1.569
    2MMT2   Omg 6195   5.779   5.015   1.569
    2MMT2  Ohmg 6196   5.523   5.117   1.576
    2MMT2    Ob 6197   5.655   4.973   1.345
    2MMT2    Ob 6198   5.825   5.175   1.346
    2MMT2    Ob 6199   5.911   4.922   1.370
    2MMT2     H 6200   5.563   5.195   1.533
    2MMT2   Mgo 6201   6.136   4.978   1.675
    2MMT2    Si 6202   0.020   4.788   1.943
    2MMT2    Si 6203   0.030   5.083   1.944
    2MMT2   Omg 6204   0.001   4.815   1.781
    2MMT2   Omg 6205   0.046   5.089   1.781
    2MMT2  Ohmg 6206   5.977   4.987   1.774
    2MMT2    Ob 6207   5.846   5.131   2.005
    2MMT2    Ob 6208   0.000   4.929   2.005
    2MMT2    Ob 6209   6.106   5.183   1.981
    2MMT2     H 6210   5.937   4.910   1.818
    2MMT2   Mgo 6211   5.883   5.426   1.675
    2MMT2    Si 6212   5.959   5.237   1.943
    2MMT2    Si 6213   5.969   5.531   1.944
    2MMT2   Omg 6214   5.939   5.263   1.781
    2MMT2   Omg 6215   5.985   5.538   1.781
    2MMT2    Oh 6216   0.048   5.435   1.774
    2MMT2    Ob 6217   6.108   5.580   2.005
    2MMT2    Ob 6218   5.939   5.377   2.005
    2MMT2    Ob 6219   5.853   5.631   1.981
    2MMT2     H 6220   0.008   5.358   1.818
    2MMT2    Al 6221   6.143   5.575   1.675
    2MMT2    Si 6222   6.058   4.868   1.407
    2MMT2    Si 6223   6.057   5.470   1.406
    2MMT2   Omg 6224   6.077   4.841   1.569
    2MMT2   Omg 6225   6.042   5.463   1.569
    2MMT2    Oh 6226   0.110   5.566   1.576
    2MMT2    Ob 6227   0.242   5.422   1.345
    2MMT2    Ob 6228   6.088   5.624   1.346
    2MMT2    Ob 6229   6.173   5.370   1.370
    2MMT2     H 6230   0.150   5.643   1.533
    2MMT2    Al 6231   5.880   5.127   1.675
    2MMT2    Si 6232   0.129   5.316   1.407
    2MMT2    Si 6233   0.118   5.021   1.406
    2MMT2    Op 6234   0.148   5.290   1.569
    2MMT2   Omg 6235   0.103   5.015   1.569
    2MMT2  Ohmg 6236   6.039   5.117   1.576
    2MMT2    Ob 6237   6.171   4.973   1.345
    2MMT2    Ob 6238   0.149   5.175   1.346
    2MMT2    Ob 6239   0.235   4.922   1.370
    2MMT2     H 6240   6.079   5.195   1.533
    2MMT2   Mgo 6241   0.470   5.874   1.675
    2MMT2    Si 6242   0.545   5.685   1.943
    2MMT2    Si 6243   0.556   5.980   1.944
    2MMT2   Omg 6244   0.526   5.712   1.781
    2MMT2   Omg 6245   0.571   5.986   1.781
    2MMT2  Ohmg 6246   0.311   5.884   1.774
    2MMT2    Ob 6247   0.179   6.028   2.005
    2MMT2    Ob 6248   0.526   5.826   2.005
    2MMT2    Ob 6249   0.440   6.079   1.981
    2MMT2     H 6250   0.271   5.807   1.818
    2MMT2    Al 6251   0.217   0.047   1.675
    2MMT2    Si 6252   0.292   6.133   1.943
    2MMT2    Si 6253   0.303   0.152   1.944
    2MMT2    Op 6254   0.273   6.160   1.781
    2MMT2   Omg 6255   0.318   0.158   1.781
    2MMT2  Ohmg 6256   0.574   0.056   1.774
    2MMT2    Ob 6257   0.442   0.200   2.005
    2MMT2    Ob 6258   0.272   6.274   2.005
    2MMT2    Ob 6259   0.187   0.252   1.981
    2MMT2     H 6260   0.534   6.255   1.818
    2MMT2   Mgo 6261   0.477   0.195   1.675
    2MMT2    Si 6262   0.392   5.765   1.407
    2MMT2    Si 6263   0.391   0.090   1.406
    2MMT2   Omg 6264   0.411   5.738   1.569
    2MMT2   Omg 6265   0.376   0.084   1.569
    2MMT2  Ohmg 6266   0.636   0.186   1.576
    2MMT2    Ob 6267   0.768   0.042   1.345
    2MMT2    Ob 6268   0.421   0.244   1.346
    2MMT2    Ob 6269   0.507   6.267   1.370
    2MMT2     H 6270   0.676   0.263   1.533
    2MMT2    Al 6271   0.214   6.023   1.675
    2MMT2    Si 6272   0.655   6.213   1.407
    2MMT2    Si 6273   0.644   5.918   1.406
    2MMT2    Op 6274   0.674   6.186   1.569
    2MMT2   Omg 6275   0.629   5.912   1.569
    2MMT2  Ohmg 6276   0.373   6.014   1.576
    2MMT2    Ob 6277   0.505   5.870   1.345
    2MMT2    Ob 6278   0.675   6.072   1.346
    2MMT2    Ob 6279   0.760   5.818   1.370
    2MMT2     H 6280   0.413   6.091   1.533
    2MMT2   Mgo 6281   0.986   5.874   1.675
    2MMT2    Si 6282   1.061   5.685   1.943
    2MMT2    Si 6283   1.072   5.980   1.944
    2MMT2   Omg 6284   1.042   5.712   1.781
    2MMT2   Omg 6285   1.087   5.986   1.781
    2MMT2  Ohmg 6286   0.827   5.884   1.774
    2MMT2    Ob 6287   0.695   6.028   2.005
    2MMT2    Ob 6288   1.042   5.826   2.005
    2MMT2    Ob 6289   0.956   6.079   1.981
    2MMT2     H 6290   0.787   5.807   1.818
    2MMT2    Al 6291   0.733   0.047   1.675
    2MMT2    Si 6292   0.808   6.133   1.943
    2MMT2    Si 6293   0.819   0.152   1.944
    2MMT2    Op 6294   0.789   6.160   1.781
    2MMT2   Omg 6295   0.834   0.158   1.781
    2MMT2  Ohmg 6296   1.090   0.056   1.774
    2MMT2    Ob 6297   0.958   0.200   2.005
    2MMT2    Ob 6298   0.788   6.274   2.005
    2MMT2    Ob 6299   0.703   0.252   1.981
    2MMT2     H 6300   1.050   6.255   1.818
    2MMT2   Mgo 6301   0.993   0.195   1.675
    2MMT2    Si 6302   0.908   5.765   1.407
    2MMT2    Si 6303   0.907   0.090   1.406
    2MMT2   Omg 6304   0.927   5.738   1.569
    2MMT2   Omg 6305   0.892   0.084   1.569
    2MMT2  Ohmg 6306   1.152   0.186   1.576
    2MMT2    Ob 6307   1.284   0.042   1.345
    2MMT2    Ob 6308   0.937   0.244   1.346
    2MMT2    Ob 6309   1.023   6.267   1.370
    2MMT2     H 6310   1.192   0.263   1.533
    2MMT2    Al 6311   0.730   6.023   1.675
    2MMT2    Si 6312   1.171   6.213   1.407
    2MMT2    Si 6313   1.160   5.918   1.406
    2MMT2    Op 6314   1.190   6.186   1.569
    2MMT2   Omg 6315   1.145   5.912   1.569
    2MMT2  Ohmg 6316   0.889   6.014   1.576
    2MMT2    Ob 6317   1.021   5.870   1.345
    2MMT2    Ob 6318   1.191   6.072   1.346
    2MMT2    Ob 6319   1.276   5.818   1.370
    2MMT2     H 6320   0.929   6.091   1.533
    2MMT2    Al 6321   1.502   5.874   1.675
    2MMT2    Si 6322   1.577   5.685   1.943
    2MMT2    Si 6323   1.588   5.980   1.944
    2MMT2   Omg 6324   1.558   5.712   1.781
    2MMT2    Op 6325   1.603   5.986   1.781
    2MMT2    Oh 6326   1.343   5.884   1.774
    2MMT2    Ob 6327   1.211   6.028   2.005
    2MMT2    Ob 6328   1.558   5.826   2.005
    2MMT2    Ob 6329   1.472   6.079   1.981
    2MMT2     H 6330   1.303   5.807   1.818
    2MMT2    Al 6331   1.249   0.047   1.675
    2MMT2    Si 6332   1.324   6.133   1.943
    2MMT2    Si 6333   1.335   0.152   1.944
    2MMT2    Op 6334   1.305   6.160   1.781
    2MMT2    Op 6335   1.350   0.158   1.781
    2MMT2    Oh 6336   1.606   0.056   1.774
    2MMT2    Ob 6337   1.474   0.200   2.005
    2MMT2    Ob 6338   1.304   6.274   2.005
    2MMT2    Ob 6339   1.219   0.252   1.981
    2MMT2     H 6340   1.566   6.255   1.818
    2MMT2    Al 6341   1.509   0.195   1.675
    2MMT2    Si 6342   1.424   5.765   1.407
    2MMT2    Si 6343   1.423   0.090   1.406
    2MMT2   Omg 6344   1.443   5.738   1.569
    2MMT2    Op 6345   1.408   0.084   1.569
    2MMT2    Oh 6346   1.668   0.186   1.576
    2MMT2    Ob 6347   1.800   0.042   1.345
    2MMT2    Ob 6348   1.453   0.244   1.346
    2MMT2    Ob 6349   1.539   6.267   1.370
    2MMT2     H 6350   1.708   0.263   1.533
    2MMT2    Al 6351   1.246   6.023   1.675
    2MMT2    Si 6352   1.687   6.213   1.407
    2MMT2    Si 6353   1.676   5.918   1.406
    2MMT2    Op 6354   1.706   6.186   1.569
    2MMT2    Op 6355   1.661   5.912   1.569
    2MMT2    Oh 6356   1.405   6.014   1.576
    2MMT2    Ob 6357   1.537   5.870   1.345
    2MMT2    Ob 6358   1.707   6.072   1.346
    2MMT2    Ob 6359   1.792   5.818   1.370
    2MMT2     H 6360   1.445   6.091   1.533
    2MMT2    Al 6361   2.018   5.874   1.675
    2MMT2    Si 6362   2.093   5.685   1.943
    2MMT2    Si 6363   2.104   5.980   1.944
    2MMT2    Op 6364   2.074   5.712   1.781
    2MMT2    Op 6365   2.119   5.986   1.781
    2MMT2    Oh 6366   1.859   5.884   1.774
    2MMT2    Ob 6367   1.727   6.028   2.005
    2MMT2    Ob 6368   2.074   5.826   2.005
    2MMT2    Ob 6369   1.988   6.079   1.981
    2MMT2     H 6370   1.819   5.807   1.818
    2MMT2    Al 6371   1.765   0.047   1.675
    2MMT2    Si 6372   1.840   6.133   1.943
    2MMT2    Si 6373   1.851   0.152   1.944
    2MMT2    Op 6374   1.821   6.160   1.781
    2MMT2   Omg 6375   1.866   0.158   1.781
    2MMT2  Ohmg 6376   2.122   0.056   1.774
    2MMT2    Ob 6377   1.990   0.200   2.005
    2MMT2    Ob 6378   1.820   6.274   2.005
    2MMT2    Ob 6379   1.735   0.252   1.981
    2MMT2     H 6380   2.082   6.255   1.818
    2MMT2   Mgo 6381   2.025   0.195   1.675
    2MMT2    Si 6382   1.940   5.765   1.407
    2MMT2    Si 6383   1.939   0.090   1.406
    2MMT2    Op 6384   1.959   5.738   1.569
    2MMT2   Omg 6385   1.924   0.084   1.569
    2MMT2  Ohmg 6386   2.184   0.186   1.576
    2MMT2    Ob 6387   2.316   0.042   1.345
    2MMT2    Ob 6388   1.969   0.244   1.346
    2MMT2    Ob 6389   2.055   6.267   1.370
    2MMT2     H 6390   2.224   0.263   1.533
    2MMT2    Al 6391   1.762   6.023   1.675
    2MMT2    Si 6392   2.203   6.213   1.407
    2MMT2    Si 6393   2.192   5.918   1.406
    2MMT2    Op 6394   2.222   6.186   1.569
    2MMT2    Op 6395   2.177   5.912   1.569
    2MMT2    Oh 6396   1.921   6.014   1.576
    2MMT2    Ob 6397   2.053   5.870   1.345
    2MMT2    Ob 6398   2.223   6.072   1.346
    2MMT2    Ob 6399   2.308   5.818   1.370
    2MMT2     H 6400   1.961   6.091   1.533
    2MMT2    Al 6401   2.534   5.874   1.675
    2MMT2    Si 6402   2.609   5.685   1.943
    2MMT2    Si 6403   2.620   5.980   1.944
    2MMT2    Op 6404   2.590   5.712   1.781
    2MMT2    Op 6405   2.635   5.986   1.781
    2MMT2    Oh 6406   2.375   5.884   1.774
    2MMT2    Ob 6407   2.243   6.028   2.005
    2MMT2    Ob 6408   2.590   5.826   2.005
    2MMT2    Ob 6409   2.504   6.079   1.981
    2MMT2     H 6410   2.335   5.807   1.818
    2MMT2    Al 6411   2.281   0.047   1.675
    2MMT2    Si 6412   2.356   6.133   1.943
    2MMT2    Si 6413   2.367   0.152   1.944
    2MMT2    Op 6414   2.337   6.160   1.781
    2MMT2    Op 6415   2.382   0.158   1.781
    2MMT2  Ohmg 6416   2.638   0.056   1.774
    2MMT2    Ob 6417   2.506   0.200   2.005
    2MMT2    Ob 6418   2.336   6.274   2.005
    2MMT2    Ob 6419   2.251   0.252   1.981
    2MMT2     H 6420   2.598   6.255   1.818
    2MMT2    Al 6421   2.541   0.195   1.675
    2MMT2    Si 6422   2.456   5.765   1.407
    2MMT2    Si 6423   2.455   0.090   1.406
    2MMT2    Op 6424   2.475   5.738   1.569
    2MMT2    Op 6425   2.440   0.084   1.569
    2MMT2  Ohmg 6426   2.700   0.186   1.576
    2MMT2    Ob 6427   2.832   0.042   1.345
    2MMT2    Ob 6428   2.485   0.244   1.346
    2MMT2    Ob 6429   2.571   6.267   1.370
    2MMT2     H 6430   2.740   0.263   1.533
    2MMT2    Al 6431   2.278   6.023   1.675
    2MMT2    Si 6432   2.719   6.213   1.407
    2MMT2    Si 6433   2.708   5.918   1.406
    2MMT2   Omg 6434   2.738   6.186   1.569
    2MMT2    Op 6435   2.693   5.912   1.569
    2MMT2    Oh 6436   2.437   6.014   1.576
    2MMT2    Ob 6437   2.569   5.870   1.345
    2MMT2    Ob 6438   2.739   6.072   1.346
    2MMT2    Ob 6439   2.824   5.818   1.370
    2MMT2     H 6440   2.477   6.091   1.533
    2MMT2    Al 6441   3.050   5.874   1.675
    2MMT2    Si 6442   3.125   5.685   1.943
    2MMT2    Si 6443   3.136   5.980   1.944
    2MMT2    Op 6444   3.106   5.712   1.781
    2MMT2    Op 6445   3.151   5.986   1.781
    2MMT2    Oh 6446   2.891   5.884   1.774
    2MMT2    Ob 6447   2.759   6.028   2.005
    2MMT2    Ob 6448   3.106   5.826   2.005
    2MMT2    Ob 6449   3.020   6.079   1.981
    2MMT2     H 6450   2.851   5.807   1.818
    2MMT2   Mgo 6451   2.797   0.047   1.675
    2MMT2    Si 6452   2.872   6.133   1.943
    2MMT2    Si 6453   2.883   0.152   1.944
    2MMT2   Omg 6454   2.853   6.160   1.781
    2MMT2   Omg 6455   2.898   0.158   1.781
    2MMT2  Ohmg 6456   3.154   0.056   1.774
    2MMT2    Ob 6457   3.022   0.200   2.005
    2MMT2    Ob 6458   2.852   6.274   2.005
    2MMT2    Ob 6459   2.767   0.252   1.981
    2MMT2     H 6460   3.114   6.255   1.818
    2MMT2    Al 6461   3.057   0.195   1.675
    2MMT2    Si 6462   2.972   5.765   1.407
    2MMT2    Si 6463   2.971   0.090   1.406
    2MMT2    Op 6464   2.991   5.738   1.569
    2MMT2   Omg 6465   2.956   0.084   1.569
    2MMT2  Ohmg 6466   3.216   0.186   1.576
    2MMT2    Ob 6467   3.348   0.042   1.345
    2MMT2    Ob 6468   3.001   0.244   1.346
    2MMT2    Ob 6469   3.087   6.267   1.370
    2MMT2     H 6470   3.256   0.263   1.533
    2MMT2    Al 6471   2.794   6.023   1.675
    2MMT2    Si 6472   3.235   6.213   1.407
    2MMT2    Si 6473   3.224   5.918   1.406
    2MMT2   Omg 6474   3.254   6.186   1.569
    2MMT2    Op 6475   3.209   5.912   1.569
    2MMT2    Oh 6476   2.953   6.014   1.576
    2MMT2    Ob 6477   3.085   5.870   1.345
    2MMT2    Ob 6478   3.255   6.072   1.346
    2MMT2    Ob 6479   3.340   5.818   1.370
    2MMT2     H 6480   2.993   6.091   1.533
    2MMT2   Mgo 6481   3.566   5.874   1.675
    2MMT2    Si 6482   3.641   5.685   1.943
    2MMT2    Si 6483   3.652   5.980   1.944
    2MMT2   Omg 6484   3.622   5.712   1.781
    2MMT2   Omg 6485   3.667   5.986   1.781
    2MMT2  Ohmg 6486   3.407   5.884   1.774
    2MMT2    Ob 6487   3.275   6.028   2.005
    2MMT2    Ob 6488   3.622   5.826   2.005
    2MMT2    Ob 6489   3.536   6.079   1.981
    2MMT2     H 6490   3.367   5.807   1.818
    2MMT2   Mgo 6491   3.313   0.047   1.675
    2MMT2    Si 6492   3.388   6.133   1.943
    2MMT2    Si 6493   3.399   0.152   1.944
    2MMT2   Omg 6494   3.369   6.160   1.781
    2MMT2   Omg 6495   3.414   0.158   1.781
    2MMT2    Oh 6496   3.670   0.056   1.774
    2MMT2    Ob 6497   3.538   0.200   2.005
    2MMT2    Ob 6498   3.368   6.274   2.005
    2MMT2    Ob 6499   3.283   0.252   1.981
    2MMT2     H 6500   3.630   6.255   1.818
    2MMT2    Al 6501   3.573   0.195   1.675
    2MMT2    Si 6502   3.488   5.765   1.407
    2MMT2    Si 6503   3.487   0.090   1.406
    2MMT2   Omg 6504   3.507   5.738   1.569
    2MMT2   Omg 6505   3.472   0.084   1.569
    2MMT2    Oh 6506   3.732   0.186   1.576
    2MMT2    Ob 6507   3.864   0.042   1.345
    2MMT2    Ob 6508   3.517   0.244   1.346
    2MMT2    Ob 6509   3.603   6.267   1.370
    2MMT2     H 6510   3.772   0.263   1.533
    2MMT2    Al 6511   3.310   6.023   1.675
    2MMT2    Si 6512   3.751   6.213   1.407
    2MMT2    Si 6513   3.740   5.918   1.406
    2MMT2    Op 6514   3.770   6.186   1.569
    2MMT2   Omg 6515   3.725   5.912   1.569
    2MMT2  Ohmg 6516   3.469   6.014   1.576
    2MMT2    Ob 6517   3.601   5.870   1.345
    2MMT2    Ob 6518   3.771   6.072   1.346
    2MMT2    Ob 6519   3.856   5.818   1.370
    2MMT2     H 6520   3.509   6.091   1.533
    2MMT2   Mgo 6521   4.082   5.874   1.675
    2MMT2    Si 6522   4.157   5.685   1.943
    2MMT2    Si 6523   4.168   5.980   1.944
    2MMT2   Omg 6524   4.138   5.712   1.781
    2MMT2   Omg 6525   4.183   5.986   1.781
    2MMT2  Ohmg 6526   3.923   5.884   1.774
    2MMT2    Ob 6527   3.791   6.028   2.005
    2MMT2    Ob 6528   4.138   5.826   2.005
    2MMT2    Ob 6529   4.052   6.079   1.981
    2MMT2     H 6530   3.883   5.807   1.818
    2MMT2    Al 6531   3.829   0.047   1.675
    2MMT2    Si 6532   3.904   6.133   1.943
    2MMT2    Si 6533   3.915   0.152   1.944
    2MMT2    Op 6534   3.885   6.160   1.781
    2MMT2   Omg 6535   3.930   0.158   1.781
    2MMT2  Ohmg 6536   4.186   0.056   1.774
    2MMT2    Ob 6537   4.054   0.200   2.005
    2MMT2    Ob 6538   3.884   6.274   2.005
    2MMT2    Ob 6539   3.799   0.252   1.981
    2MMT2     H 6540   4.146   6.255   1.818
    2MMT2   Mgo 6541   4.089   0.195   1.675
    2MMT2    Si 6542   4.004   5.765   1.407
    2MMT2    Si 6543   4.003   0.090   1.406
    2MMT2   Omg 6544   4.023   5.738   1.569
    2MMT2   Omg 6545   3.988   0.084   1.569
    2MMT2  Ohmg 6546   4.248   0.186   1.576
    2MMT2    Ob 6547   4.380   0.042   1.345
    2MMT2    Ob 6548   4.033   0.244   1.346
    2MMT2    Ob 6549   4.119   6.267   1.370
    2MMT2     H 6550   4.288   0.263   1.533
    2MMT2    Al 6551   3.826   6.023   1.675
    2MMT2    Si 6552   4.267   6.213   1.407
    2MMT2    Si 6553   4.256   5.918   1.406
    2MMT2    Op 6554   4.286   6.186   1.569
    2MMT2   Omg 6555   4.241   5.912   1.569
    2MMT2  Ohmg 6556   3.985   6.014   1.576
    2MMT2    Ob 6557   4.117   5.870   1.345
    2MMT2    Ob 6558   4.287   6.072   1.346
    2MMT2    Ob 6559   4.372   5.818   1.370
    2MMT2     H 6560   4.025   6.091   1.533
    2MMT2    Al 6561   4.598   5.874   1.675
    2MMT2    Si 6562   4.673   5.685   1.943
    2MMT2    Si 6563   4.684   5.980   1.944
    2MMT2   Omg 6564   4.654   5.712   1.781
    2MMT2    Op 6565   4.699   5.986   1.781
    2MMT2    Oh 6566   4.439   5.884   1.774
    2MMT2    Ob 6567   4.307   6.028   2.005
    2MMT2    Ob 6568   4.654   5.826   2.005
    2MMT2    Ob 6569   4.568   6.079   1.981
    2MMT2     H 6570   4.399   5.807   1.818
    2MMT2    Al 6571   4.345   0.047   1.675
    2MMT2    Si 6572   4.420   6.133   1.943
    2MMT2    Si 6573   4.431   0.152   1.944
    2MMT2    Op 6574   4.401   6.160   1.781
    2MMT2    Op 6575   4.446   0.158   1.781
    2MMT2    Oh 6576   4.702   0.056   1.774
    2MMT2    Ob 6577   4.570   0.200   2.005
    2MMT2    Ob 6578   4.400   6.274   2.005
    2MMT2    Ob 6579   4.315   0.252   1.981
    2MMT2     H 6580   4.662   6.255   1.818
    2MMT2    Al 6581   4.605   0.195   1.675
    2MMT2    Si 6582   4.520   5.765   1.407
    2MMT2    Si 6583   4.519   0.090   1.406
    2MMT2   Omg 6584   4.539   5.738   1.569
    2MMT2    Op 6585   4.504   0.084   1.569
    2MMT2    Oh 6586   4.764   0.186   1.576
    2MMT2    Ob 6587   4.896   0.042   1.345
    2MMT2    Ob 6588   4.549   0.244   1.346
    2MMT2    Ob 6589   4.635   6.267   1.370
    2MMT2     H 6590   4.804   0.263   1.533
    2MMT2    Al 6591   4.342   6.023   1.675
    2MMT2    Si 6592   4.783   6.213   1.407
    2MMT2    Si 6593   4.772   5.918   1.406
    2MMT2    Op 6594   4.802   6.186   1.569
    2MMT2    Op 6595   4.757   5.912   1.569
    2MMT2    Oh 6596   4.501   6.014   1.576
    2MMT2    Ob 6597   4.633   5.870   1.345
    2MMT2    Ob 6598   4.803   6.072   1.346
    2MMT2    Ob 6599   4.888   5.818   1.370
    2MMT2     H 6600   4.541   6.091   1.533
    2MMT2   Mgo 6601   5.114   5.874   1.675
    2MMT2    Si 6602   5.189   5.685   1.943
    2MMT2    Si 6603   5.200   5.980   1.944
    2MMT2   Omg 6604   5.170   5.712   1.781
    2MMT2   Omg 6605   5.215   5.986   1.781
    2MMT2  Ohmg 6606   4.955   5.884   1.774
    2MMT2    Ob 6607   4.823   6.028   2.005
    2MMT2    Ob 6608   5.170   5.826   2.005
    2MMT2    Ob 6609   5.084   6.079   1.981
    2MMT2     H 6610   4.915   5.807   1.818
    2MMT2    Al 6611   4.861   0.047   1.675
    2MMT2    Si 6612   4.936   6.133   1.943
    2MMT2    Si 6613   4.947   0.152   1.944
    2MMT2    Op 6614   4.917   6.160   1.781
    2MMT2   Omg 6615   4.962   0.158   1.781
    2MMT2  Ohmg 6616   5.218   0.056   1.774
    2MMT2    Ob 6617   5.086   0.200   2.005
    2MMT2    Ob 6618   4.916   6.274   2.005
    2MMT2    Ob 6619   4.831   0.252   1.981
    2MMT2     H 6620   5.178   6.255   1.818
    2MMT2   Mgo 6621   5.121   0.195   1.675
    2MMT2    Si 6622   5.036   5.765   1.407
    2MMT2    Si 6623   5.035   0.090   1.406
    2MMT2   Omg 6624   5.055   5.738   1.569
    2MMT2   Omg 6625   5.020   0.084   1.569
    2MMT2  Ohmg 6626   5.280   0.186   1.576
    2MMT2    Ob 6627   5.412   0.042   1.345
    2MMT2    Ob 6628   5.065   0.244   1.346
    2MMT2    Ob 6629   5.151   6.267   1.370
    2MMT2     H 6630   5.320   0.263   1.533
    2MMT2    Al 6631   4.858   6.023   1.675
    2MMT2    Si 6632   5.299   6.213   1.407
    2MMT2    Si 6633   5.288   5.918   1.406
    2MMT2    Op 6634   5.318   6.186   1.569
    2MMT2   Omg 6635   5.273   5.912   1.569
    2MMT2  Ohmg 6636   5.017   6.014   1.576
    2MMT2    Ob 6637   5.149   5.870   1.345
    2MMT2    Ob 6638   5.319   6.072   1.346
    2MMT2    Ob 6639   5.404   5.818   1.370
    2MMT2     H 6640   5.057   6.091   1.533
    2MMT2    Al 6641   5.630   5.874   1.675
    2MMT2    Si 6642   5.705   5.685   1.943
    2MMT2    Si 6643   5.716   5.980   1.944
    2MMT2    Op 6644   5.686   5.712   1.781
    2MMT2    Op 6645   5.731   5.986   1.781
    2MMT2    Oh 6646   5.471   5.884   1.774
    2MMT2    Ob 6647   5.339   6.028   2.005
    2MMT2    Ob 6648   5.686   5.826   2.005
    2MMT2    Ob 6649   5.600   6.079   1.981
    2MMT2     H 6650   5.431   5.807   1.818
    2MMT2    Al 6651   5.377   0.047   1.675
    2MMT2    Si 6652   5.452   6.133   1.943
    2MMT2    Si 6653   5.463   0.152   1.944
    2MMT2    Op 6654   5.433   6.160   1.781
    2MMT2   Omg 6655   5.478   0.158   1.781
    2MMT2  Ohmg 6656   5.734   0.056   1.774
    2MMT2    Ob 6657   5.602   0.200   2.005
    2MMT2    Ob 6658   5.432   6.274   2.005
    2MMT2    Ob 6659   5.347   0.252   1.981
    2MMT2     H 6660   5.694   6.255   1.818
    2MMT2   Mgo 6661   5.637   0.195   1.675
    2MMT2    Si 6662   5.552   5.765   1.407
    2MMT2    Si 6663   5.551   0.090   1.406
    2MMT2    Op 6664   5.571   5.738   1.569
    2MMT2   Omg 6665   5.536   0.084   1.569
    2MMT2  Ohmg 6666   5.796   0.186   1.576
    2MMT2    Ob 6667   5.928   0.042   1.345
    2MMT2    Ob 6668   5.581   0.244   1.346
    2MMT2    Ob 6669   5.667   6.267   1.370
    2MMT2     H 6670   5.836   0.263   1.533
    2MMT2    Al 6671   5.374   6.023   1.675
    2MMT2    Si 6672   5.815   6.213   1.407
    2MMT2    Si 6673   5.804   5.918   1.406
    2MMT2    Op 6674   5.834   6.186   1.569
    2MMT2    Op 6675   5.789   5.912   1.569
    2MMT2    Oh 6676   5.533   6.014   1.576
    2MMT2    Ob 6677   5.665   5.870   1.345
    2MMT2    Ob 6678   5.835   6.072   1.346
    2MMT2    Ob 6679   5.920   5.818   1.370
    2MMT2     H 6680   5.573   6.091   1.533
    2MMT2   Mgo 6681   6.146   5.874   1.675
    2MMT2    Si 6682   0.029   5.685   1.943
    2MMT2    Si 6683   0.040   5.980   1.944
    2MMT2   Omg 6684   0.010   5.712   1.781
    2MMT2   Omg 6685   0.055   5.986   1.781
    2MMT2  Ohmg 6686   5.987   5.884   1.774
    2MMT2    Ob 6687   5.855   6.028   2.005
    2MMT2    Ob 6688   0.010   5.826   2.005
    2MMT2    Ob 6689   6.116   6.079   1.981
    2MMT2     H 6690   5.947   5.807   1.818
    2MMT2    Al 6691   5.893   0.047   1.675
    2MMT2    Si 6692   5.968   6.133   1.943
    2MMT2    Si 6693   5.979   0.152   1.944
    2MMT2    Op 6694   5.949   6.160   1.781
    2MMT2   Omg 6695   5.994   0.158   1.781
    2MMT2  Ohmg 6696   0.058   0.056   1.774
    2MMT2    Ob 6697   6.118   0.200   2.005
    2MMT2    Ob 6698   5.948   6.274   2.005
    2MMT2    Ob 6699   5.863   0.252   1.981
    2MMT2     H 6700   0.018   6.255   1.818
    2MMT2   Mgo 6701   6.153   0.195   1.675
    2MMT2    Si 6702   6.068   5.765   1.407
    2MMT2    Si 6703   6.067   0.090   1.406
    2MMT2   Omg 6704   6.087   5.738   1.569
    2MMT2   Omg 6705   6.052   0.084   1.569
    2MMT2  Ohmg 6706   0.120   0.186   1.576
    2MMT2    Ob 6707   0.252   0.042   1.345
    2MMT2    Ob 6708   6.097   0.244   1.346
    2MMT2    Ob 6709   6.183   6.267   1.370
    2MMT2     H 6710   0.160   0.263   1.533
    2MMT2    Al 6711   5.890   6.023   1.675
    2MMT2    Si 6712   0.139   6.213   1.407
    2MMT2    Si 6713   0.128   5.918   1.406
    2MMT2    Op 6714   0.158   6.186   1.569
    2MMT2   Omg 6715   0.113   5.912   1.569
    2MMT2  Ohmg 6716   6.049   6.014   1.576
    2MMT2    Ob 6717   6.181   5.870   1.345
    2MMT2    Ob 6718   0.159   6.072   1.346
    2MMT2    Ob 6719   0.244   5.818   1.370
    2MMT2     H 6720   6.089   6.091   1.533
    3Na      Na 6721   3.580   1.222   0.800
    4Na      Na 6722   0.455   2.711   0.800
    5Na      Na 6723   6.000   1.118   0.800
    6Na      Na 6724   2.370   4.850   0.800
    7Na      Na 6725   2.751   5.183   0.800
    8Na      Na 6726   4.442   3.153   0.800
    9Na      Na 6727   0.813   5.513   0.800
   10Na      Na 6728   5.630   0.489   0.800
   11Na      Na 6729   2.065   2.766   0.800
   12Na      Na 6730   0.872   1.537   0.800
   13Na      Na 6731   1.231   2.425   0.800
   14Na      Na 6732   1.621   0.488   0.800
   15Na      Na 6733   4.827   4.408   0.800
   16Na      Na 6734   1.188   5.221   0.800
   17Na      Na 6735   0.487   4.446   0.800
   18Na      Na 6736   4.803   3.585   0.800
   19Na      Na 6737   3.135   3.944   0.800
   20Na      Na 6738   3.502   4.690   0.800
   21Na      Na 6739   1.254   1.648   0.800
   22Na      Na 6740   1.618   1.641   0.800
   23Na      Na 6741   5.133   1.269   0.800
   24Na      Na 6742   3.176   0.417   0.800
   25Na      Na 6743   3.889   2.431   0.800
   26Na      Na 6744   3.538   0.700   0.800
   27Na      Na 6745   0.806   1.183   0.800
   28Na      Na 6746   3.544   0.309   0.800
   29Na      Na 6747   2.462   0.851   0.800
   30Na      Na 6748   2.703   5.602   0.800
   31Na      Na 6749   3.156   6.024   0.800
   32Na      Na 6750   4.422   1.589   0.800
   33Na      Na 6751   2.301   3.157   0.800
   34Na      Na 6752   4.385   2.797   0.800
   35Na      Na 6753   5.975   4.815   0.800
   36Na      Na 6754   3.198   3.497   0.800
   37Na      Na 6755   3.516   3.910   0.800
   38Na      Na 6756   1.163   2.018   0.800
   39Na      Na 6757   2.693   4.453   0.800
   40Na      Na 6758   1.579   3.899   0.800
   41Na      Na 6759   3.536   2.030   0.800
   42Na      Na 6760   0.004   2.470   0.800
   43Na      Na 6761   5.854   5.150   0.800
   44Na      Na 6762   3.989   5.944   0.800
   45Na      Na 6763   2.420   5.947   0.800
   46Na      Na 6764   5.173   3.224   0.800
   47Na      Na 6765   2.703   2.392   0.800
   48Na      Na 6766   5.201   0.763   0.800
   49Na      Na 6767   3.532   5.238   0.800
   50Na      Na 6768   0.804   0.070   0.800
   51Na      Na 6769   6.017   3.094   0.800
   52Na      Na 6770   5.850   1.957   0.800
   53Na      Na 6771   0.471   3.936   0.800
   54Na      Na 6772   3.975   1.591   0.800
   55Na      Na 6773   3.191   4.432   0.800
   56Na      Na 6774   5.211   5.564   0.800
   57Na      Na 6775   2.795   5.978   0.800
   58Na      Na 6776   0.706   0.466   0.800
   59Na      Na 6777   4.846   0.012   0.800
   60Na      Na 6778   5.517   4.026   0.800
   61Na      Na 6779   5.847   3.585   0.800
   62Na      Na 6780   1.170   4.693   0.800
   63Na      Na 6781   1.181   3.198   0.800
   64Na      Na 6782   0.077   3.128   0.800
   65Na      Na 6783   4.690   3.958   0.800
   66Na      Na 6784   5.900   0.054   0.800
   67Na      Na 6785   5.060   5.900   0.800
   68Na      Na 6786   3.174   1.961   0.800
   69Na      Na 6787   3.147   1.112   0.800
   70Na      Na 6788   1.638   2.061   0.800
   71Na      Na 6789   3.947   0.375   0.800
   72Na      Na 6790   1.963   3.992   0.800
   73Na      Na 6791   3.519   4.282   0.800
   74Na      Na 6792   3.096   2.757   0.800
   75Na      Na 6793   1.922   5.493   0.800
   76Na      Na 6794   0.073   3.906   0.800
   77Na      Na 6795   1.600   5.860   0.800
   78Na      Na 6796   3.961   1.950   0.800
   79Na      Na 6797   4.736   4.794   0.800
   80Na      Na 6798   2.343   2.446   0.800
   81Na      Na 6799   2.004   1.211   0.800
   82Na      Na 6800   2.728   0.471   0.800
   83Na      Na 6801   4.320   0.445   0.800
   84Na      Na 6802   1.539   2.729   0.800
   85Na      Na 6803   3.624   2.744   0.800
   86Na      Na 6804   5.124   0.390   0.800
   87Na      Na 6805   4.208   0.339   6.100
   88Na      Na 6806   0.001   0.071   6.100
   89Na      Na 6807   0.379   0.048   6.100
   90Na      Na 6808   0.711   0.352   6.100
   91Na      Na 6809   6.016   5.076   6.100
   92Na      Na 6810   0.006   1.349   6.100
   93Na      Na 6811   5.651   4.653   6.100
   94Na      Na 6812   3.195   1.755   6.100
   95Na      Na 6813   0.773   1.846   6.100
   96Na      Na 6814   1.458   3.836   6.100
   97Na      Na 6815   4.197   4.939   6.100
   98Na      Na 6816   5.776   1.097   6.100
   99Na      Na 6817   3.857   2.498   6.100
  100Na      Na 6818   1.713   5.701   6.100
  101Na      Na 6819   2.492   4.331   6.100
  102Na      Na 6820   2.518   3.257   6.100
  103Na      Na 6821   5.025   3.999   6.100
  104Na      Na 6822   2.931   2.924   6.100
  105Na      Na 6823   4.693   0.768   6.100
  106Na      Na 6824   1.787   6.065   6.100
  107Na      Na 6825   4.619   1.781   6.100
  108Na      Na 6826   1.368   6.076   6.100
  109Na      Na 6827   1.859   4.288   6.100
  110Na      Na 6828   0.414   6.022   6.100
  111Na      Na 6829   0.984   5.312   6.100
  112Na      Na 6830   0.046   0.445   6.100
  113Na      Na 6831   2.825   2.497   6.100
  114Na      Na 6832   0.768   1.491   6.100
  115Na      Na 6833   1.827   3.261   6.100
  116Na      Na 6834   0.399   4.603   6.100
  117Na      Na 6835   1.717   2.203   6.100
  118Na      Na 6836   1.480   1.077   6.100
  119Na      Na 6837   0.077   4.000   6.100
  120Na      Na 6838   6.073   3.858   6.100
  121Na      Na 6839   3.901   3.505   6.100
  122Na      Na 6840   1.817   2.574   6.100
  123Na      Na 6841   4.711   3.875   6.100
  124Na      Na 6842   4.287   6.133   6.100
  125Na      Na 6843   3.169   0.279   6.100
  126Na      Na 6844   4.265   3.836   6.100
  127Na      Na 6845   0.409   3.513   6.100
  128Na      Na 6846   4.657   5.406   6.100
  129Na      Na 6847   1.447   4.311   6.100
  130Na      Na 6848   5.971   2.194   6.100
  131Na      Na 6849   3.143   2.204   6.100
  132Na      Na 6850   4.622   1.380   6.100
  133Na      Na 6851   5.390   3.163   6.100
  134Na      Na 6852   1.703   3.582   6.100
  135Na      Na 6853   2.506   2.871   6.100
  136Na      Na 6854   0.067   1.771   6.100
  137Na      Na 6855   0.696   0.760   6.100
  138Na      Na 6856   2.407   3.981   6.100
  139Na      Na 6857   0.765   3.169   6.100
  140Na      Na 6858   0.330   2.933   6.100
  141Na      Na 6859   1.466   5.401   6.100
  142Na      Na 6860   2.866   4.281   6.100
  143Na      Na 6861   5.750   0.672   6.100
  144Na      Na 6862   6.104   1.488   6.100
  145Na      Na 6863   2.456   5.671   6.100
  146Na      Na 6864   5.987   5.413   6.100
  147Na      Na 6865   3.611   0.332   6.100
  148Na      Na 6866   2.835   3.908   6.100
  149Na      Na 6867   5.392   2.466   6.100
  150Na      Na 6868   3.854   3.169   6.100
  151Na      Na 6869   0.301   2.096   6.100
  152Na      Na 6870   2.082   5.314   6.100
  153Na      Na 6871   1.128   3.246   6.100
  154Na      Na 6872   5.044   2.505   6.100
  155Na      Na 6873   2.212   0.068   6.100
  156Na      Na 6874   0.673   2.214   6.100
  157Na      Na 6875   0.032   3.569   6.100
  158Na      Na 6876   3.246   3.850   6.100
  159Na      Na 6877   5.382   0.785   6.100
  160Na      Na 6878   3.962   3.987   6.100
  161Na      Na 6879   4.567   3.482   6.100
  162Na      Na 6880   3.609   5.303   6.100
  163Na      Na 6881   3.236   4.285   6.100
  164Na      Na 6882   6.129   2.548   6.100
  165Na      Na 6883   4.283   2.187   6.100
  166Na      Na 6884   0.056   4.560   6.100
  167Na      Na 6885   1.037   2.825   6.100
  168Na      Na 6886   2.432   5.301   6.100
  169Na      Na 6887   2.865   0.715   6.100
  170Na      Na 6888   6.006   1.825   6.100
      1H2    HH 6889   4.736   3.953   4.354
      1H2    HH 6890   4.705   3.902   4.398
      2H2    HH 6891   2.593   5.293   2.404
      2H2    HH 6892   2.579   5.365   2.390
      3H2    HH 6893   3.822   1.337   2.705
      3H2    HH 6894	3.784   1.327   2.768
      4H2    HH 6895	4.736   3.953   7.855
      4H2    HH 6896	4.705   3.902   7.899
      5H2    HH 6897	3.611   2.109   3.981
      5H2    HH 6898	3.567   2.107   3.923
      6H2    HH 6899	2.465   1.761   2.211
      6H2    HH 6900	2.473   1.800   2.273
      7H2    HH 6901	2.274   0.583   2.510
      7H2    HH 6902	2.266   0.558   2.579
      8H2    HH 6903	3.579   4.855   3.456
      8H2    HH 6904	3.527   4.821   3.496
      9H2    HH 6905	0.032   3.449   7.239
      9H2    HH 6906	0.007   3.507   7.201
     10H2    HH 6907	0.790   3.803   6.089
     10H2    HH 6908	0.792   3.746   6.042
     11H2    HH 6909	1.659   0.963   8.708	
     11H2    HH 6910	1.609   0.941   8.758
     12H2    HH 6911	1.919   0.674   7.737
     12H2    HH 6912	1.887   0.703   7.677
     13H2    HH 6913	1.589   4.511   2.430
     13H2    HH 6914	1.604   4.562   2.482
     14H2    HH 6915	5.266   3.671   3.401
     14H2    HH 6916	5.199   3.687   3.425
     15H2    HH 6917	1.724   3.232   3.835
     15H2    HH 6918	1.738   3.283   3.784
     16H2    HH 6919	5.791   4.815   8.245
     16H2    HH 6920	5.852   4.839   8.209
     17H2    HH 6921	3.822   1.337   4.894
     17H2    HH 6922	3.784   1.327   4.957
     18H2    HH 6923	2.730   2.513   7.986
     18H2    HH 6924	2.749   2.489   7.919
     19H2    HH 6925	5.077   3.182   3.895
     19H2    HH 6926	5.129   3.232   3.912
     20H2    HH 6927	4.302   2.351   3.875
     20H2    HH 6928	4.306   2.351   3.801   
     21H2    HH 6929	4.302   2.351   6.178
     21H2    HH 6930	4.306   2.351   6.104     
     22H2    HH 6931	3.878   1.618   6.654
     22H2    HH 6932	3.940   1.631   6.692   
     23H2    HH 6933	3.880   1.170   7.939
     23H2    HH 6934	3.944   1.132   7.934
     24H2    HH 6935	0.629   4.146   6.308
     24H2    HH 6936   0.646   4.149   6.236
     25H2    HH 6937	3.030   4.926   4.812
     25H2    HH 6938	3.046   4.998   4.822     
     26H2    HH 6939	0.982   5.625   7.459
     26H2    HH 6940	1.012   5.648   7.523   
     27H2    HH 6941	0.413   1.442   6.853
     27H2    HH 6942	0.386   1.445   6.921
     28H2    HH 6943	4.202   0.560   6.045
     28H2    HH 6944   4.211   0.528   5.979  
     29H2    HH 6945	1.902   2.517   4.804     
     29H2    HH 6946	1.897   2.471   4.861
     30H2    HH 6947	4.578   1.935   4.973   
     30H2    HH 6948	4.581   1.938   4.899
     31H2    HH 6949	1.326   3.437   5.852
     31H2    HH 6950	1.362   3.465   5.911
     32H2    HH 6951   1.798   4.770   5.484   
     32H2    HH 6952	1.834   4.816   5.529   
     33H2    HH 6952   4.325   5.571   7.938
     33H2    HH 6954	4.265   5.567   7.895
     34H2    HH 6955	2.772   2.924   6.780
     34H2    HH 6956	2.737   2.969   6.733
     35H2    HH 6957   4.986   0.091   4.588
     35H2    HH 6958   5.004   0.085   4.660   
     36H2    HH 6959	3.899   3.392   4.205
     36H2    HH 6960   3.895   3.334   4.251
     37H2    HH 6961   1.829   2.340   6.349  
     37H2    HH 6962	1.768   2.344   6.308
     38H2    HH 6963   5.048   2.038   6.564
     38H2    HH 6964	5.078   1.998   6.509
     39H2    HH 6965   0.761   1.570   4.513
     39H2    HH 6966   0.833   1.585   4.510
     40H2    HH 6967   1.758   5.122   4.174
     40H2    HH 6968   1.819   5.146   4.141 
   6.19200   6.27608  10.35000
